 Entering Gaussian System

 Standard orientation:



 -------------------------------------------------------
     1  16    0     0.000000     0.000000     1.192657
     2   6    0     0.000000     1.236399    -0.009960
     3   6    0     0.000000    -1.236399    -0.009960
     4   6    0     0.000000     0.713765    -1.266084
     5   6    0     0.000000    -0.713765    -1.266084
     6   1    0     0.000000     2.277720     0.279836
     7   1    0     0.000000    -2.277720     0.279836
     8   1    0     0.000000     1.319056    -2.164820
     9   1    0     0.000000    -1.319056    -2.164820
 -------------------------------------------------------

 AO basis set (Overlap normalization):
 Atom  S1     Shell     1 S    6
   2.1917100000e+04   1.8692408490e-03
   3.3014900000e+03   1.4230306460e-02
   7.5414600000e+02   6.9696231660e-02
   2.1271100000e+02   2.3848710830e-01
   6.7989600000e+01   4.8330721950e-01
   2.3051500000e+01   3.3807415360e-01
 Atom  S1     Shell     2 SP   6
   4.2373500000e+02  -2.3767704990e-03   4.0610099820e-03
   1.0071000000e+02  -3.1693006650e-02   3.0681299860e-02
   3.2159900000e+01  -1.1331702380e-01   1.3045199940e-01
   1.1807900000e+01   5.6090011770e-02   3.2720499850e-01
   4.6311000000e+00   5.9225512430e-01   4.5285099800e-01
   1.8702500000e+00   4.5500609550e-01   2.5604199890e-01
 Atom  S1     Shell     3 SP   3
   2.6158400000e+00  -2.5037311420e-01  -1.4510489550e-02
   9.2216700000e-01   6.6956763100e-02   3.1026277650e-01
   3.4128700000e-01   1.0545062690e+00   7.5448245650e-01
 Atom  S1     Shell     4 SP   1
   1.1716700000e-01   1.0000000000e+00   1.0000000000e+00
 Atom  S1     Shell     5 D    1
   6.5000000000e-01   1.0000000000e+00
 Atom  C2     Shell     6 S    6
   3.0475248800e+03   1.8347371320e-03
   4.5736951800e+02   1.4037322810e-02
   1.0394868500e+02   6.8842622260e-02
   2.9210155300e+01   2.3218444320e-01
   9.2866629600e+00   4.6794134840e-01
   3.1639269600e+00   3.6231198530e-01
 Atom  C2     Shell     7 SP   3
   7.8682723500e+00  -1.1933241980e-01   6.8999066590e-02
   1.8812885400e+00  -1.6085415170e-01   3.1642396100e-01
   5.4424925800e-01   1.1434564380e+00   7.4430829090e-01
 Atom  C2     Shell     8 SP   1
   1.6871447820e-01   1.0000000000e+00   1.0000000000e+00
 Atom  C2     Shell     9 D    1
   8.0000000000e-01   1.0000000000e+00
 Atom  C3     Shell    10 S    6
   3.0475248800e+03   1.8347371320e-03
   4.5736951800e+02   1.4037322810e-02
   1.0394868500e+02   6.8842622260e-02
   2.9210155300e+01   2.3218444320e-01
   9.2866629600e+00   4.6794134840e-01
   3.1639269600e+00   3.6231198530e-01
 Atom  C3     Shell    11 SP   3
   7.8682723500e+00  -1.1933241980e-01   6.8999066590e-02
   1.8812885400e+00  -1.6085415170e-01   3.1642396100e-01
   5.4424925800e-01   1.1434564380e+00   7.4430829090e-01
 Atom  C3     Shell    12 SP   1
   1.6871447820e-01   1.0000000000e+00   1.0000000000e+00
 Atom  C3     Shell    13 D    1
   8.0000000000e-01   1.0000000000e+00
 Atom  C4     Shell    14 S    6
   3.0475248800e+03   1.8347371320e-03
   4.5736951800e+02   1.4037322810e-02
   1.0394868500e+02   6.8842622260e-02
   2.9210155300e+01   2.3218444320e-01
   9.2866629600e+00   4.6794134840e-01
   3.1639269600e+00   3.6231198530e-01
 Atom  C4     Shell    15 SP   3
   7.8682723500e+00  -1.1933241980e-01   6.8999066590e-02
   1.8812885400e+00  -1.6085415170e-01   3.1642396100e-01
   5.4424925800e-01   1.1434564380e+00   7.4430829090e-01
 Atom  C4     Shell    16 SP   1
   1.6871447820e-01   1.0000000000e+00   1.0000000000e+00
 Atom  C4     Shell    17 D    1
   8.0000000000e-01   1.0000000000e+00
 Atom  C5     Shell    18 S    6
   3.0475248800e+03   1.8347371320e-03
   4.5736951800e+02   1.4037322810e-02
   1.0394868500e+02   6.8842622260e-02
   2.9210155300e+01   2.3218444320e-01
   9.2866629600e+00   4.6794134840e-01
   3.1639269600e+00   3.6231198530e-01
 Atom  C5     Shell    19 SP   3
   7.8682723500e+00  -1.1933241980e-01   6.8999066590e-02
   1.8812885400e+00  -1.6085415170e-01   3.1642396100e-01
   5.4424925800e-01   1.1434564380e+00   7.4430829090e-01
 Atom  C5     Shell    20 SP   1
   1.6871447820e-01   1.0000000000e+00   1.0000000000e+00
 Atom  C5     Shell    21 D    1
   8.0000000000e-01   1.0000000000e+00
 Atom  H6     Shell    22 S    3
   1.8731136960e+01   3.3494604340e-02
   2.8253943650e+00   2.3472695350e-01
   6.4012169230e-01   8.1375732610e-01
 Atom  H6     Shell    23 S    1
   1.6127775880e-01   1.0000000000e+00
 Atom  H7     Shell    24 S    3
   1.8731136960e+01   3.3494604340e-02
   2.8253943650e+00   2.3472695350e-01
   6.4012169230e-01   8.1375732610e-01
 Atom  H7     Shell    25 S    1
   1.6127775880e-01   1.0000000000e+00
 Atom  H8     Shell    26 S    3
   1.8731136960e+01   3.3494604340e-02
   2.8253943650e+00   2.3472695350e-01
   6.4012169230e-01   8.1375732610e-01
 Atom  H8     Shell    27 S    1
   1.6127775880e-01   1.0000000000e+00
 Atom  H9     Shell    28 S    3
   1.8731136960e+01   3.3494604340e-02
   2.8253943650e+00   2.3472695350e-01
   6.4012169230e-01   8.1375732610e-01
 Atom  H9     Shell    29 S    1
   1.6127775880e-01   1.0000000000e+00

 Molecular Orbital Coefficients:
                           1         2         3         4         5
                           O         O         O         O         O    
     Eigenvalues --  -2388.9870-276.54706-276.54706-275.34687-275.34687
    1 S1      .S        1.02261  -0.00082  -0.00082   0.00020   0.00020
    2 S1      .S       -0.10874   0.00301   0.00301  -0.00092  -0.00092
    3 S1      .X        0.00000  -0.00000  -0.00000  -0.00000  -0.00000
    4 S1      .Y        0.00000  -0.00487   0.00487  -0.00027   0.00027
    5 S1      .Z       -0.00009  -0.00468  -0.00468   0.00086   0.00086
    6 S1      .S       -0.03349  -0.01011  -0.01011   0.00236   0.00236
    7 S1      .X       -0.00000   0.00000  -0.00000   0.00000  -0.00000
    8 S1      .Y       -0.00000   0.01362  -0.01362   0.00068  -0.00068
    9 S1      .Z        0.00041   0.01310   0.01310  -0.00268  -0.00268
   10 S1      .S        0.00435   0.00891   0.00891   0.00292   0.00292
   11 S1      .X       -0.00000   0.00000  -0.00000   0.00000  -0.00000
   12 S1      .Y        0.00000  -0.00133   0.00133   0.00110  -0.00110
   13 S1      .Z       -0.00016  -0.00173  -0.00173  -0.00342  -0.00342
   14 S1      .XX       0.01055   0.00140   0.00140  -0.00006  -0.00006
   15 S1      .YY       0.01044  -0.00123  -0.00123   0.00083   0.00083
   16 S1      .ZZ       0.01041  -0.00147  -0.00147  -0.00081  -0.00081
   17 S1      .XY       0.00000   0.00000  -0.00000   0.00000  -0.00000
   18 S1      .XZ       0.00000   0.00000   0.00000   0.00000   0.00000
   19 S1      .YZ       0.00000  -0.00363   0.00363   0.00060  -0.00060
   20 C2      .S       -0.00004  -0.00052   1.00900   0.00489  -0.00064
   21 C2      .S        0.00019   0.00160   0.00538  -0.01520   0.00190
   22 C2      .X       -0.00000  -0.00000   0.00000  -0.00000   0.00000
   23 C2      .Y       -0.00003  -0.00141  -0.00092   0.00945  -0.00098
   24 C2      .Z        0.00006  -0.00073   0.00401   0.02145  -0.00081
   25 C2      .S        0.00031   0.00115  -0.05536  -0.00548   0.00134
   26 C2      .X       -0.00000  -0.00000   0.00000  -0.00000   0.00000
   27 C2      .Y       -0.00060  -0.00038   0.00193   0.00267   0.00072
   28 C2      .Z       -0.00010  -0.00070  -0.00125   0.00283  -0.00044
   29 C2      .XX      -0.00004   0.00017  -0.00712   0.00098   0.00015
   30 C2      .YY       0.00004  -0.00022  -0.01013   0.00026  -0.00032
   31 C2      .ZZ       0.00005   0.00029  -0.00904  -0.00130   0.00019
   32 C2      .XY       0.00000  -0.00000   0.00000  -0.00000   0.00000
   33 C2      .XZ       0.00000   0.00000  -0.00000   0.00000  -0.00000
   34 C2      .YZ       0.00005   0.00011  -0.00029  -0.00113  -0.00061
   35 C3      .S       -0.00004   1.00900  -0.00052  -0.00064   0.00489
   36 C3      .S        0.00019   0.00538   0.00160   0.00190  -0.01520
   37 C3      .X       -0.00000  -0.00000   0.00000  -0.00000   0.00000
   38 C3      .Y        0.00003   0.00092   0.00141   0.00098  -0.00945
   39 C3      .Z        0.00006   0.00401  -0.00073  -0.00081   0.02145
   40 C3      .S        0.00031  -0.05536   0.00115   0.00134  -0.00548
   41 C3      .X       -0.00000  -0.00000   0.00000  -0.00000   0.00000
   42 C3      .Y        0.00060  -0.00193   0.00038  -0.00072  -0.00267
   43 C3      .Z       -0.00010  -0.00125  -0.00070  -0.00044   0.00283
   44 C3      .XX      -0.00004  -0.00712   0.00017   0.00015   0.00098
   45 C3      .YY       0.00004  -0.01013  -0.00022  -0.00032   0.00026
   46 C3      .ZZ       0.00005  -0.00904   0.00029   0.00019  -0.00130
   47 C3      .XY      -0.00000  -0.00000  -0.00000  -0.00000  -0.00000
   48 C3      .XZ       0.00000   0.00000  -0.00000   0.00000  -0.00000
   49 C3      .YZ      -0.00005   0.00029  -0.00011   0.00061   0.00113
   50 C4      .S        0.00000  -0.00072   0.00468   1.00976   0.00398
   51 C4      .S        0.00011   0.00179  -0.01483   0.00110  -0.01289
   52 C4      .X       -0.00000   0.00000   0.00000  -0.00000  -0.00000
   53 C4      .Y       -0.00009  -0.00062  -0.00878   0.00020   0.02161
   54 C4      .Z        0.00002   0.00063  -0.02124  -0.00113   0.00068
   55 C4      .S       -0.00036   0.00074  -0.00120  -0.05208  -0.00169
   56 C4      .X       -0.00000   0.00000   0.00000   0.00000  -0.00000
   57 C4      .Y        0.00028  -0.00025  -0.00243  -0.00013   0.00292
   58 C4      .Z       -0.00043  -0.00130  -0.00117   0.00178   0.00024
   59 C4      .XX       0.00001   0.00009   0.00081  -0.00702   0.00074
   60 C4      .YY       0.00004  -0.00036   0.00051  -0.00907  -0.00219
   61 C4      .ZZ      -0.00002   0.00002  -0.00130  -0.00955   0.00073
   62 C4      .XY       0.00000   0.00000  -0.00000   0.00000  -0.00000
   63 C4      .XZ      -0.00000   0.00000   0.00000  -0.00000   0.00000
   64 C4      .YZ      -0.00002   0.00054  -0.00102   0.00074   0.00011
   65 C5      .S        0.00000   0.00468  -0.00072   0.00398   1.00976
   66 C5      .S        0.00011  -0.01483   0.00179  -0.01289   0.00110
   67 C5      .X       -0.00000   0.00000  -0.00000  -0.00000   0.00000
   68 C5      .Y        0.00009   0.00878   0.00062  -0.02161  -0.00020
   69 C5      .Z        0.00002  -0.02124   0.00063   0.00068  -0.00113
   70 C5      .S       -0.00036  -0.00120   0.00074  -0.00169  -0.05208
   71 C5      .X       -0.00000   0.00000  -0.00000  -0.00000  -0.00000
   72 C5      .Y       -0.00028   0.00243   0.00025  -0.00292   0.00013
   73 C5      .Z       -0.00043  -0.00117  -0.00130   0.00024   0.00178
   74 C5      .XX       0.00001   0.00081   0.00009   0.00074  -0.00702
   75 C5      .YY       0.00004   0.00051  -0.00036  -0.00219  -0.00907
   76 C5      .ZZ      -0.00002  -0.00130   0.00002   0.00073  -0.00955
   77 C5      .XY      -0.00000   0.00000   0.00000  -0.00000   0.00000
   78 C5      .XZ      -0.00000  -0.00000   0.00000  -0.00000   0.00000
   79 C5      .YZ       0.00002   0.00102  -0.00054  -0.00011  -0.00074
   80 H6      .S        0.00010  -0.00091  -0.01716   0.00223  -0.00126
   81 H6      .S        0.00016  -0.00109  -0.00474   0.00274  -0.00258
   82 H7      .S        0.00010  -0.01716  -0.00091  -0.00126   0.00223
   83 H7      .S        0.00016  -0.00474  -0.00109  -0.00258   0.00274
   84 H8      .S       -0.00007  -0.00107   0.00218  -0.01792   0.00182
   85 H8      .S       -0.00021  -0.00250   0.00445  -0.00373   0.00314
   86 H9      .S       -0.00007   0.00218  -0.00107   0.00182  -0.01792
   87 H9      .S       -0.00021   0.00445  -0.00250   0.00314  -0.00373
                           6         7         8         9        10
                           O         O         O         O         O    
     Eigenvalues --  -243.65163-163.14449-163.05779-163.02356 -21.90440
    1 S1      .S       -0.16854  -0.00000  -0.00020  -0.00000  -0.00212
    2 S1      .S        1.06285  -0.00000   0.00129   0.00000   0.00865
    3 S1      .X       -0.00000  -0.00000  -0.00000   0.99813   0.00000
    4 S1      .Y       -0.00000   0.99734   0.00000   0.00000  -0.01282
    5 S1      .Z        0.00154   0.00000   0.99786   0.00000  -0.01011
    6 S1      .S       -0.05613  -0.00000  -0.00059   0.00000  -0.02397
    7 S1      .X       -0.00000   0.00000  -0.00000   0.00993   0.00000
    8 S1      .Y       -0.00000   0.01391  -0.00000   0.00000   0.03868
    9 S1      .Z       -0.00610   0.00000   0.01251   0.00000   0.02070
   10 S1      .S       -0.06132  -0.00000  -0.01838   0.00000  -0.00116
   11 S1      .X       -0.00000  -0.00000  -0.00000  -0.01845   0.00000
   12 S1      .Y        0.00000  -0.01083  -0.00000   0.00000   0.03120
   13 S1      .Z       -0.00845   0.00000  -0.00905   0.00000   0.02594
   14 S1      .XX      -0.01297   0.00000  -0.00042   0.00000  -0.00010
   15 S1      .YY      -0.01656   0.00000  -0.00010  -0.00000  -0.01224
   16 S1      .ZZ      -0.01557   0.00000  -0.00119  -0.00000   0.01678
   17 S1      .XY       0.00000  -0.00000   0.00000   0.00000  -0.00000
   18 S1      .XZ       0.00000  -0.00000   0.00000   0.00045  -0.00000
   19 S1      .YZ       0.00000   0.00046   0.00000  -0.00000   0.01028
   20 C2      .S        0.00308   0.00244  -0.00216   0.00000   0.00770
   21 C2      .S       -0.00885  -0.00485   0.00342  -0.00000  -0.01873
   22 C2      .X        0.00000   0.00000  -0.00000  -0.00493   0.00000
   23 C2      .Y        0.01367   0.00553  -0.00657  -0.00000   0.02589
   24 C2      .Z       -0.01381  -0.00838   0.00450  -0.00000   0.00154
   25 C2      .S       -0.00449  -0.01376   0.01432  -0.00000  -0.07146
   26 C2      .X        0.00000   0.00000  -0.00000  -0.00230  -0.00000
   27 C2      .Y        0.00543   0.00951  -0.01210  -0.00000   0.02280
   28 C2      .Z       -0.00247  -0.00374   0.00163   0.00000   0.00650
   29 C2      .XX       0.00092   0.00061  -0.00086  -0.00000  -0.00055
   30 C2      .YY      -0.00091  -0.00044   0.00136  -0.00000   0.00080
   31 C2      .ZZ      -0.00127  -0.00143   0.00007  -0.00000  -0.00036
   32 C2      .XY       0.00000  -0.00000   0.00000   0.00081   0.00000
   33 C2      .XZ      -0.00000   0.00000  -0.00000  -0.00077  -0.00000
   34 C2      .YZ       0.00221   0.00123  -0.00099   0.00000   0.00024
   35 C3      .S        0.00308  -0.00244  -0.00216   0.00000  -0.05524
   36 C3      .S       -0.00885   0.00485   0.00342  -0.00000   0.26285
   37 C3      .X       -0.00000   0.00000  -0.00000  -0.00493  -0.00000
   38 C3      .Y       -0.01367   0.00553   0.00657  -0.00000   0.12353
   39 C3      .Z       -0.01381   0.00838   0.00450   0.00000  -0.32415
   40 C3      .S       -0.00449   0.01376   0.01432   0.00000   0.23000
   41 C3      .X       -0.00000   0.00000   0.00000  -0.00230  -0.00000
   42 C3      .Y       -0.00543   0.00951   0.01210  -0.00000   0.04696
   43 C3      .Z       -0.00247   0.00374   0.00163   0.00000  -0.11291
   44 C3      .XX       0.00092  -0.00061  -0.00086   0.00000  -0.01441
   45 C3      .YY      -0.00091   0.00044   0.00136  -0.00000  -0.00689
   46 C3      .ZZ      -0.00127   0.00143   0.00007   0.00000   0.00321
   47 C3      .XY      -0.00000   0.00000  -0.00000  -0.00081  -0.00000
   48 C3      .XZ      -0.00000   0.00000  -0.00000  -0.00077  -0.00000
   49 C3      .YZ      -0.00221   0.00123   0.00099  -0.00000  -0.01032
   50 C4      .S       -0.00087  -0.00034   0.00028   0.00000   0.01021
   51 C4      .S        0.00139  -0.00072   0.00055  -0.00000  -0.02843
   52 C4      .X        0.00000  -0.00000   0.00000   0.00079   0.00000
   53 C4      .Y       -0.00044   0.00109  -0.00051  -0.00000   0.03002
   54 C4      .Z        0.00161   0.00068   0.00053   0.00000   0.00409
   55 C4      .S        0.00313   0.01442  -0.00657  -0.00000   0.00149
   56 C4      .X        0.00000  -0.00000   0.00000   0.00186   0.00000
   57 C4      .Y       -0.00227  -0.00778   0.00219  -0.00000   0.01156
   58 C4      .Z        0.00308   0.00758  -0.00473   0.00000   0.04673
   59 C4      .XX      -0.00010  -0.00038  -0.00000  -0.00000  -0.00165
   60 C4      .YY       0.00010   0.00038  -0.00001  -0.00000   0.00786
   61 C4      .ZZ      -0.00050  -0.00019   0.00000  -0.00000  -0.00051
   62 C4      .XY       0.00000  -0.00000  -0.00000  -0.00011   0.00000
   63 C4      .XZ       0.00000  -0.00000  -0.00000  -0.00013   0.00000
   64 C4      .YZ       0.00029   0.00022  -0.00002   0.00000  -0.00895
   65 C5      .S       -0.00087   0.00034   0.00028  -0.00000  -0.04282
   66 C5      .S        0.00139   0.00072   0.00055   0.00000   0.24122
   67 C5      .X       -0.00000   0.00000   0.00000   0.00079   0.00000
   68 C5      .Y        0.00044   0.00109   0.00051  -0.00000  -0.16008
   69 C5      .Z        0.00161  -0.00068   0.00053  -0.00000   0.31273
   70 C5      .S        0.00313  -0.01442  -0.00657   0.00000   0.11411
   71 C5      .X       -0.00000  -0.00000   0.00000   0.00186   0.00000
   72 C5      .Y        0.00227  -0.00778  -0.00219  -0.00000  -0.06259
   73 C5      .Z        0.00308  -0.00758  -0.00473  -0.00000   0.04594
   74 C5      .XX      -0.00010   0.00038  -0.00000   0.00000  -0.01289
   75 C5      .YY       0.00010  -0.00038  -0.00001   0.00000  -0.01263
   76 C5      .ZZ      -0.00050   0.00019   0.00000   0.00000   0.00862
   77 C5      .XY       0.00000  -0.00000   0.00000   0.00011   0.00000
   78 C5      .XZ      -0.00000   0.00000  -0.00000  -0.00013  -0.00000
   79 C5      .YZ      -0.00029   0.00022   0.00002   0.00000  -0.00938
   80 H6      .S        0.00255  -0.00040  -0.00060   0.00000   0.00617
   81 H6      .S        0.00336   0.00075   0.00295   0.00000   0.00573
   82 H7      .S        0.00255   0.00040  -0.00060  -0.00000  -0.01890
   83 H7      .S        0.00336  -0.00075   0.00295  -0.00000  -0.04698
   84 H8      .S       -0.00082  -0.00002   0.00005   0.00000   0.01747
   85 H8      .S       -0.00025   0.00211  -0.00048   0.00000   0.04867
   86 H9      .S       -0.00082   0.00002   0.00005  -0.00000  -0.01717
   87 H9      .S       -0.00025  -0.00211  -0.00048  -0.00000  -0.06874
                          11        12        13        14        15
                           O         O         O         O         O    
     Eigenvalues --   -21.90440 -20.18870 -20.06855 -20.06855 -19.03962
    1 S1      .S       -0.00212  -0.00253   0.01723   0.01723   0.04378
    2 S1      .S        0.00865   0.00991  -0.04899  -0.04899  -0.16428
    3 S1      .X        0.00000   0.00000   0.00000   0.00000  -0.00000
    4 S1      .Y        0.01282  -0.00000   0.12133  -0.12133   0.00000
    5 S1      .Z       -0.01011  -0.01644   0.09902   0.09902  -0.14726
    6 S1      .S       -0.02397  -0.02836   0.28979   0.28979   0.62525
    7 S1      .X       -0.00000   0.00000  -0.00000  -0.00000   0.00000
    8 S1      .Y       -0.03868   0.00000  -0.37308   0.37308  -0.00000
    9 S1      .Z        0.02070   0.04760  -0.30329  -0.30329   0.43540
   10 S1      .S       -0.00116  -0.04443  -0.02120  -0.02120   0.38433
   11 S1      .X        0.00000   0.00000   0.00000  -0.00000  -0.00000
   12 S1      .Y       -0.03120   0.00000  -0.06028   0.06028   0.00000
   13 S1      .Z        0.02594   0.04014  -0.06592  -0.06592   0.16001
   14 S1      .XX      -0.00010  -0.00109  -0.02653  -0.02653   0.00300
   15 S1      .YY      -0.01224   0.00037   0.01270   0.01270  -0.01355
   16 S1      .ZZ       0.01678  -0.00357   0.01431   0.01431  -0.02624
   17 S1      .XY      -0.00000  -0.00000   0.00000   0.00000   0.00000
   18 S1      .XZ      -0.00000  -0.00000   0.00000   0.00000  -0.00000
   19 S1      .YZ      -0.01028   0.00000   0.05735  -0.05735   0.00000
   20 C2      .S       -0.05524   0.01075   0.00797  -0.03951   0.01731
   21 C2      .S        0.26285  -0.02855  -0.01739   0.18420  -0.04154
   22 C2      .X       -0.00000   0.00000  -0.00000   0.00000   0.00000
   23 C2      .Y       -0.12353   0.00115   0.02510  -0.22751   0.04379
   24 C2      .Z       -0.32415   0.03768  -0.01918   0.26962  -0.05427
   25 C2      .S        0.23000  -0.01679   0.00171   0.17904  -0.09195
   26 C2      .X        0.00000  -0.00000  -0.00000  -0.00000  -0.00000
   27 C2      .Y       -0.04696  -0.01681  -0.00393  -0.07453   0.03928
   28 C2      .Z       -0.11291   0.03053  -0.04182   0.12787  -0.03047
   29 C2      .XX      -0.01441  -0.00148  -0.00116  -0.00987   0.00135
   30 C2      .YY      -0.00689   0.00657   0.00932   0.00504  -0.00667
   31 C2      .ZZ       0.00321  -0.00074  -0.00658   0.00325   0.00713
   32 C2      .XY      -0.00000   0.00000   0.00000  -0.00000  -0.00000
   33 C2      .XZ       0.00000   0.00000   0.00000   0.00000  -0.00000
   34 C2      .YZ       0.01032   0.01093  -0.00119  -0.01957  -0.00021
   35 C3      .S        0.00770   0.01075  -0.03951   0.00797   0.01731
   36 C3      .S       -0.01873  -0.02855   0.18420  -0.01739  -0.04154
   37 C3      .X        0.00000   0.00000  -0.00000   0.00000   0.00000
   38 C3      .Y       -0.02589  -0.00115   0.22751  -0.02510  -0.04379
   39 C3      .Z        0.00154   0.03768   0.26962  -0.01918  -0.05427
   40 C3      .S       -0.07146  -0.01679   0.17904   0.00171  -0.09195
   41 C3      .X       -0.00000   0.00000  -0.00000   0.00000   0.00000
   42 C3      .Y       -0.02280   0.01681   0.07453   0.00393  -0.03928
   43 C3      .Z        0.00650   0.03053   0.12787  -0.04182  -0.03047
   44 C3      .XX      -0.00055  -0.00148  -0.00987  -0.00116   0.00135
   45 C3      .YY       0.00080   0.00657   0.00504   0.00932  -0.00667
   46 C3      .ZZ      -0.00036  -0.00074   0.00325  -0.00658   0.00713
   47 C3      .XY       0.00000   0.00000   0.00000  -0.00000   0.00000
   48 C3      .XZ       0.00000   0.00000   0.00000  -0.00000   0.00000
   49 C3      .YZ      -0.00024  -0.01093   0.01957   0.00119   0.00021
   50 C4      .S       -0.04282  -0.04263   0.00929   0.01282  -0.00732
   51 C4      .S        0.24122   0.23091  -0.01986  -0.03665   0.01760
   52 C4      .X        0.00000   0.00000  -0.00000  -0.00000   0.00000
   53 C4      .Y        0.16008  -0.36073   0.01600  -0.02331   0.00574
   54 C4      .Z        0.31273  -0.03811  -0.01830  -0.03733   0.01689
   55 C4      .S        0.11411   0.17768  -0.09108  -0.00899   0.05350
   56 C4      .X        0.00000  -0.00000   0.00000   0.00000  -0.00000
   57 C4      .Y        0.06259  -0.10569   0.01283  -0.02681   0.01232
   58 C4      .Z        0.04594  -0.02941  -0.03141  -0.00089   0.01389
   59 C4      .XX      -0.01289  -0.01207   0.00009  -0.00073   0.00057
   60 C4      .YY      -0.01263   0.01227   0.00038  -0.00539   0.00204
   61 C4      .ZZ       0.00862  -0.01393   0.00202   0.01125  -0.00431
   62 C4      .XY      -0.00000  -0.00000  -0.00000  -0.00000   0.00000
   63 C4      .XZ      -0.00000   0.00000  -0.00000  -0.00000   0.00000
   64 C4      .YZ       0.00938  -0.00199  -0.00056  -0.00579   0.00243
   65 C5      .S        0.01021  -0.04263   0.01282   0.00929  -0.00732
   66 C5      .S       -0.02843   0.23091  -0.03665  -0.01986   0.01760
   67 C5      .X        0.00000  -0.00000  -0.00000  -0.00000   0.00000
   68 C5      .Y       -0.03002   0.36073   0.02331  -0.01600  -0.00574
   69 C5      .Z        0.00409  -0.03811  -0.03733  -0.01830   0.01689
   70 C5      .S        0.00149   0.17768  -0.00899  -0.09108   0.05350
   71 C5      .X        0.00000  -0.00000   0.00000  -0.00000  -0.00000
   72 C5      .Y       -0.01156   0.10569   0.02681  -0.01283  -0.01232
   73 C5      .Z        0.04673  -0.02941  -0.00089  -0.03141   0.01389
   74 C5      .XX      -0.00165  -0.01207  -0.00073   0.00009   0.00057
   75 C5      .YY       0.00786   0.01227  -0.00539   0.00038   0.00204
   76 C5      .ZZ      -0.00051  -0.01393   0.01125   0.00202  -0.00431
   77 C5      .XY      -0.00000   0.00000  -0.00000   0.00000   0.00000
   78 C5      .XZ      -0.00000   0.00000  -0.00000  -0.00000   0.00000
   79 C5      .YZ       0.00895   0.00199   0.00579   0.00056  -0.00243
   80 H6      .S       -0.01890   0.01972   0.02167  -0.02922  -0.00888
   81 H6      .S       -0.04698   0.04650   0.04211  -0.07025  -0.00860
   82 H7      .S        0.00617   0.01972  -0.02922   0.02167  -0.00888
   83 H7      .S        0.00573   0.04650  -0.07025   0.04211  -0.00860
   84 H8      .S       -0.01717  -0.02062   0.00567   0.02115  -0.01059
   85 H8      .S       -0.06874  -0.06636   0.00649   0.05427  -0.03033
   86 H9      .S        0.01747  -0.02062   0.02115   0.00567  -0.01059
   87 H9      .S        0.04867  -0.06636   0.05427   0.00649  -0.03033
                          16        17        18        19        20
                           O         O         O         O         O    
     Eigenvalues --   -17.03470 -17.03470 -16.49365 -16.49365  -9.53846
    1 S1      .S        0.00429  -0.00429  -0.00204  -0.00204   0.00000
    2 S1      .S       -0.01641   0.01641   0.00813   0.00813  -0.00000
    3 S1      .X       -0.00000   0.00000   0.00000  -0.00000  -0.01141
    4 S1      .Y        0.01323   0.01323   0.00998  -0.00998  -0.00000
    5 S1      .Z        0.01386  -0.01386  -0.00890  -0.00890  -0.00000
    6 S1      .S        0.05673  -0.05673  -0.02629  -0.02629   0.00000
    7 S1      .X        0.00000   0.00000  -0.00000   0.00000   0.03931
    8 S1      .Y       -0.03436  -0.03436  -0.02953   0.02953   0.00000
    9 S1      .Z       -0.04409   0.04409   0.02589   0.02589  -0.00000
   10 S1      .S        0.03056  -0.03056  -0.02448  -0.02448  -0.00000
   11 S1      .X        0.00000   0.00000  -0.00000   0.00000  -0.01226
   12 S1      .Y       -0.01464  -0.01464  -0.02135   0.02135   0.00000
   13 S1      .Z       -0.01512   0.01512   0.02930   0.02930  -0.00000
   14 S1      .XX       0.00108  -0.00108  -0.00112  -0.00112  -0.00000
   15 S1      .YY      -0.02017   0.02017  -0.00428  -0.00428   0.00000
   16 S1      .ZZ       0.01406  -0.01406   0.00525   0.00525  -0.00000
   17 S1      .XY      -0.00000   0.00000  -0.00000  -0.00000   0.03913
   18 S1      .XZ      -0.00000  -0.00000  -0.00000   0.00000  -0.02069
   19 S1      .YZ       0.00367   0.00367  -0.00352   0.00352  -0.00000
   20 C2      .S        0.00458  -0.05339  -0.01443   0.00619  -0.00000
   21 C2      .S       -0.01039   0.22801   0.03966  -0.01614   0.00000
   22 C2      .X       -0.00000  -0.00000   0.00000  -0.00000   0.40655
   23 C2      .Y        0.01353   0.36319  -0.03067   0.00577   0.00000
   24 C2      .Z       -0.01092   0.11545  -0.03013   0.01591   0.00000
   25 C2      .S       -0.03509   0.18253   0.06954  -0.04323   0.00000
   26 C2      .X       -0.00000  -0.00000   0.00000  -0.00000   0.29624
   27 C2      .Y        0.00299   0.14470  -0.01789  -0.00297   0.00000
   28 C2      .Z       -0.02321   0.05986  -0.02132   0.02118  -0.00000
   29 C2      .XX      -0.00061  -0.01239  -0.00168  -0.00076  -0.00000
   30 C2      .YY       0.00334   0.01692   0.00618   0.00223  -0.00000
   31 C2      .ZZ      -0.00262  -0.00961  -0.01089   0.00010   0.00000
   32 C2      .XY      -0.00000  -0.00000  -0.00000   0.00000  -0.01113
   33 C2      .XZ       0.00000   0.00000   0.00000  -0.00000  -0.01077
   34 C2      .YZ      -0.00001   0.01119   0.00736   0.00324  -0.00000
   35 C3      .S        0.05339  -0.00458   0.00619  -0.01443  -0.00000
   36 C3      .S       -0.22801   0.01039  -0.01614   0.03966  -0.00000
   37 C3      .X        0.00000  -0.00000   0.00000  -0.00000  -0.10300
   38 C3      .Y        0.36319   0.01353  -0.00577   0.03067   0.00000
   39 C3      .Z       -0.11545   0.01092   0.01591  -0.03013  -0.00000
   40 C3      .S       -0.18253   0.03509  -0.04323   0.06954   0.00000
   41 C3      .X        0.00000  -0.00000   0.00000  -0.00000  -0.11406
   42 C3      .Y        0.14470   0.00299   0.00297   0.01789   0.00000
   43 C3      .Z       -0.05986   0.02321   0.02118  -0.02132   0.00000
   44 C3      .XX       0.01239   0.00061  -0.00076  -0.00168   0.00000
   45 C3      .YY      -0.01692  -0.00334   0.00223   0.00618   0.00000
   46 C3      .ZZ       0.00961   0.00262   0.00010  -0.01089  -0.00000
   47 C3      .XY       0.00000   0.00000   0.00000  -0.00000   0.00260
   48 C3      .XZ       0.00000   0.00000   0.00000  -0.00000  -0.00404
   49 C3      .YZ       0.01119  -0.00001  -0.00324  -0.00736   0.00000
   50 C4      .S        0.00612   0.01128   0.04540  -0.01138  -0.00000
   51 C4      .S       -0.01455  -0.03691  -0.21065   0.03168   0.00000
   52 C4      .X        0.00000   0.00000  -0.00000   0.00000   0.38514
   53 C4      .Y        0.01695  -0.01164  -0.21285  -0.04296  -0.00000
   54 C4      .Z        0.00075  -0.04094   0.32469   0.00134   0.00000
   55 C4      .S       -0.04633  -0.01989  -0.19617   0.06182   0.00000
   56 C4      .X        0.00000   0.00000  -0.00000   0.00000   0.25229
   57 C4      .Y        0.01407  -0.00596  -0.07616  -0.01806  -0.00000
   58 C4      .Z        0.01110   0.00175   0.10738   0.00639   0.00000
   59 C4      .XX      -0.00054   0.00136   0.01157  -0.00115   0.00000
   60 C4      .YY       0.00275   0.00756   0.00297  -0.00293   0.00000
   61 C4      .ZZ       0.00047  -0.00382  -0.00993  -0.00111  -0.00000
   62 C4      .XY       0.00000  -0.00000   0.00000  -0.00000   0.00350
   63 C4      .XZ       0.00000  -0.00000  -0.00000   0.00000   0.01616
   64 C4      .YZ      -0.00282   0.00805   0.01944  -0.01028  -0.00000
   65 C5      .S       -0.01128  -0.00612  -0.01138   0.04540   0.00000
   66 C5      .S        0.03691   0.01455   0.03168  -0.21065   0.00000
   67 C5      .X       -0.00000  -0.00000  -0.00000   0.00000   0.07567
   68 C5      .Y       -0.01164   0.01695   0.04296   0.21285  -0.00000
   69 C5      .Z        0.04094  -0.00075   0.00134   0.32469  -0.00000
   70 C5      .S        0.01989   0.04633   0.06182  -0.19617  -0.00000
   71 C5      .X       -0.00000  -0.00000  -0.00000   0.00000   0.03773
   72 C5      .Y       -0.00596   0.01407   0.01806   0.07616  -0.00000
   73 C5      .Z       -0.00175  -0.01110   0.00639   0.10738  -0.00000
   74 C5      .XX      -0.00136   0.00054  -0.00115   0.01157  -0.00000
   75 C5      .YY      -0.00756  -0.00275  -0.00293   0.00297  -0.00000
   76 C5      .ZZ       0.00382  -0.00047  -0.00111  -0.00993  -0.00000
   77 C5      .XY      -0.00000   0.00000  -0.00000  -0.00000   0.01657
   78 C5      .XZ       0.00000   0.00000   0.00000   0.00000  -0.00236
   79 C5      .YZ       0.00805  -0.00282   0.01028  -0.01944  -0.00000
   80 H6      .S        0.00719   0.31683   0.01263   0.00682  -0.00000
   81 H6      .S        0.02051   0.21252   0.01982   0.02006  -0.00000
   82 H7      .S       -0.31683  -0.00719   0.00682   0.01263  -0.00000
   83 H7      .S       -0.21252  -0.02051   0.02006   0.01982   0.00000
   84 H8      .S        0.00625  -0.01332  -0.32000   0.01238  -0.00000
   85 H8      .S        0.02108  -0.01100  -0.23650   0.01363  -0.00000
   86 H9      .S        0.01332  -0.00625   0.01238  -0.32000  -0.00000
   87 H9      .S        0.01100  -0.02108   0.01363  -0.23650  -0.00000
                          21        22        23        24        25
                           O         O         V         V         V    
     Eigenvalues --    -9.53846  -9.24648   3.38075   3.38075   8.40522
    1 S1      .S        0.00000  -0.00000  -0.00000  -0.00000   0.03736
    2 S1      .S        0.00000   0.00000   0.00000   0.00000  -0.12293
    3 S1      .X       -0.01141  -0.22224  -0.09986  -0.09986   0.00000
    4 S1      .Y       -0.00000  -0.00000   0.00000   0.00000   0.20232
    5 S1      .Z       -0.00000   0.00000  -0.00000   0.00000   0.15340
    6 S1      .S        0.00000  -0.00000  -0.00000  -0.00000   0.59208
    7 S1      .X        0.03931   0.66297   0.30244   0.30244  -0.00000
    8 S1      .Y       -0.00000   0.00000   0.00000  -0.00000  -0.68395
    9 S1      .Z       -0.00000  -0.00000  -0.00000  -0.00000  -0.52566
   10 S1      .S        0.00000   0.00000   0.00000  -0.00000  -0.01855
   11 S1      .X       -0.01226   0.35270   0.14819   0.14819   0.00000
   12 S1      .Y       -0.00000   0.00000  -0.00000  -0.00000  -0.14268
   13 S1      .Z       -0.00000  -0.00000  -0.00000   0.00000  -0.14912
   14 S1      .XX       0.00000   0.00000   0.00000   0.00000  -0.02381
   15 S1      .YY       0.00000   0.00000   0.00000   0.00000   0.02360
   16 S1      .ZZ       0.00000   0.00000  -0.00000  -0.00000   0.02347
   17 S1      .XY      -0.03913   0.00000  -0.00019   0.00019  -0.00000
   18 S1      .XZ      -0.02069  -0.02443  -0.01003  -0.01003   0.00000
   19 S1      .YZ       0.00000   0.00000  -0.00000   0.00000   0.07069
   20 C2      .S       -0.00000   0.00000  -0.00000  -0.00000  -0.00071
   21 C2      .S        0.00000  -0.00000  -0.00000  -0.00000  -0.04529
   22 C2      .X       -0.10300   0.09190  -0.52925  -0.08614   0.00000
   23 C2      .Y        0.00000   0.00000  -0.00000   0.00000   0.07196
   24 C2      .Z       -0.00000   0.00000   0.00000  -0.00000   0.05197
   25 C2      .S        0.00000  -0.00000  -0.00000   0.00000   0.19742
   26 C2      .X       -0.11406   0.05974  -0.42576  -0.07670   0.00000
   27 C2      .Y       -0.00000  -0.00000   0.00000  -0.00000  -0.08373
   28 C2      .Z        0.00000   0.00000   0.00000  -0.00000  -0.07012
   29 C2      .XX      -0.00000  -0.00000  -0.00000  -0.00000  -0.00351
   30 C2      .YY      -0.00000  -0.00000  -0.00000  -0.00000   0.00216
   31 C2      .ZZ      -0.00000  -0.00000  -0.00000   0.00000   0.00171
   32 C2      .XY      -0.00260  -0.00950   0.01547   0.00285   0.00000
   33 C2      .XZ      -0.00404   0.01802   0.01307   0.00107  -0.00000
   34 C2      .YZ       0.00000   0.00000  -0.00000   0.00000  -0.00398
   35 C3      .S       -0.00000   0.00000  -0.00000   0.00000   0.09252
   36 C3      .S       -0.00000  -0.00000  -0.00000   0.00000  -0.34010
   37 C3      .X        0.40655   0.09190  -0.08614  -0.52925   0.00000
   38 C3      .Y       -0.00000   0.00000  -0.00000  -0.00000  -0.43522
   39 C3      .Z       -0.00000   0.00000  -0.00000   0.00000  -0.50473
   40 C3      .S       -0.00000   0.00000   0.00000  -0.00000  -0.44934
   41 C3      .X        0.29624   0.05974  -0.07670  -0.42576  -0.00000
   42 C3      .Y       -0.00000  -0.00000   0.00000  -0.00000  -0.39222
   43 C3      .Z        0.00000   0.00000  -0.00000   0.00000  -0.14535
   44 C3      .XX       0.00000   0.00000   0.00000   0.00000  -0.00777
   45 C3      .YY      -0.00000  -0.00000  -0.00000   0.00000  -0.04240
   46 C3      .ZZ       0.00000   0.00000   0.00000   0.00000  -0.03961
   47 C3      .XY       0.01113   0.00950  -0.00285  -0.01547  -0.00000
   48 C3      .XZ      -0.01077   0.01802   0.00107   0.01307  -0.00000
   49 C3      .YZ      -0.00000   0.00000  -0.00000  -0.00000  -0.03460
   50 C4      .S        0.00000  -0.00000  -0.00000   0.00000  -0.00099
   51 C4      .S       -0.00000  -0.00000  -0.00000   0.00000   0.01189
   52 C4      .X        0.07567  -0.13732   0.57393  -0.19475   0.00000
   53 C4      .Y        0.00000   0.00000   0.00000  -0.00000  -0.01769
   54 C4      .Z       -0.00000   0.00000  -0.00000   0.00000  -0.00349
   55 C4      .S       -0.00000   0.00000   0.00000  -0.00000  -0.12458
   56 C4      .X        0.03773  -0.12400   0.40094  -0.12824  -0.00000
   57 C4      .Y        0.00000   0.00000  -0.00000   0.00000  -0.00556
   58 C4      .Z       -0.00000   0.00000   0.00000  -0.00000  -0.13646
   59 C4      .XX      -0.00000   0.00000   0.00000   0.00000   0.00029
   60 C4      .YY       0.00000   0.00000   0.00000   0.00000  -0.00106
   61 C4      .ZZ       0.00000   0.00000   0.00000  -0.00000  -0.00104
   62 C4      .XY      -0.01657   0.00537   0.00276  -0.00017  -0.00000
   63 C4      .XZ      -0.00236   0.00352   0.02123  -0.00525  -0.00000
   64 C4      .YZ       0.00000   0.00000  -0.00000  -0.00000  -0.00072
   65 C5      .S       -0.00000  -0.00000   0.00000  -0.00000  -0.00892
   66 C5      .S        0.00000   0.00000   0.00000  -0.00000  -0.02801
   67 C5      .X        0.38514  -0.13732  -0.19475   0.57393  -0.00000
   68 C5      .Y        0.00000   0.00000  -0.00000   0.00000   0.12362
   69 C5      .Z        0.00000   0.00000   0.00000  -0.00000   0.06953
   70 C5      .S        0.00000   0.00000  -0.00000   0.00000   0.20744
   71 C5      .X        0.25229  -0.12400  -0.12824   0.40094   0.00000
   72 C5      .Y        0.00000   0.00000   0.00000   0.00000  -0.03382
   73 C5      .Z        0.00000  -0.00000  -0.00000   0.00000   0.16551
   74 C5      .XX      -0.00000  -0.00000   0.00000  -0.00000   0.00162
   75 C5      .YY      -0.00000  -0.00000   0.00000  -0.00000   0.00544
   76 C5      .ZZ      -0.00000  -0.00000  -0.00000  -0.00000  -0.00240
   77 C5      .XY      -0.00350  -0.00537   0.00017  -0.00276  -0.00000
   78 C5      .XZ       0.01616   0.00352  -0.00525   0.02123  -0.00000
   79 C5      .YZ       0.00000   0.00000   0.00000   0.00000  -0.00022
   80 H6      .S        0.00000   0.00000  -0.00000   0.00000   0.01959
   81 H6      .S        0.00000   0.00000  -0.00000   0.00000   0.03829
   82 H7      .S       -0.00000   0.00000   0.00000  -0.00000  -0.03794
   83 H7      .S       -0.00000   0.00000   0.00000   0.00000  -0.02676
   84 H8      .S       -0.00000   0.00000   0.00000  -0.00000  -0.00801
   85 H8      .S       -0.00000   0.00000   0.00000  -0.00000  -0.03714
   86 H9      .S        0.00000   0.00000  -0.00000   0.00000  -0.02415
   87 H9      .S       -0.00000   0.00000  -0.00000   0.00000  -0.02105
                          26        27        28        29        30
                           V         V         V         V         V    
     Eigenvalues --     8.40522  15.20190  15.20190  15.37400  15.37400
    1 S1      .S        0.03736   0.00084   0.00084   0.00092  -0.00092
    2 S1      .S       -0.12293  -0.00270  -0.00270  -0.00824   0.00824
    3 S1      .X        0.00000  -0.00000   0.00000  -0.00000  -0.00000
    4 S1      .Y       -0.20232   0.00721  -0.00721  -0.01901  -0.01901
    5 S1      .Z        0.15340   0.01627   0.01627  -0.00507   0.00507
    6 S1      .S        0.59208   0.01138   0.01138  -0.00844   0.00844
    7 S1      .X        0.00000   0.00000  -0.00000   0.00000   0.00000
    8 S1      .Y        0.68395  -0.02591   0.02591   0.06112   0.06112
    9 S1      .Z       -0.52566  -0.05231  -0.05231   0.03139  -0.03139
   10 S1      .S       -0.01855   0.01680   0.01680   0.02982  -0.02982
   11 S1      .X       -0.00000   0.00000   0.00000  -0.00000  -0.00000
   12 S1      .Y        0.14268   0.00295  -0.00295   0.01490   0.01490
   13 S1      .Z       -0.14912  -0.02572  -0.02572   0.00932  -0.00932
   14 S1      .XX      -0.02381  -0.00175  -0.00175   0.00028  -0.00028
   15 S1      .YY       0.02360   0.00056   0.00056  -0.00209   0.00209
   16 S1      .ZZ       0.02347   0.00242   0.00242  -0.00164   0.00164
   17 S1      .XY      -0.00000   0.00000  -0.00000   0.00000   0.00000
   18 S1      .XZ       0.00000  -0.00000  -0.00000  -0.00000   0.00000
   19 S1      .YZ      -0.07069   0.00291  -0.00291  -0.00221  -0.00221
   20 C2      .S        0.09252  -0.00758   0.01171   0.09269  -0.00471
   21 C2      .S       -0.34010   0.01484   0.03137  -0.36952   0.01916
   22 C2      .X        0.00000   0.00000   0.00000   0.00000   0.00000
   23 C2      .Y        0.43522  -0.04041  -0.09359  -0.69780  -0.04837
   24 C2      .Z       -0.50473  -0.01915   0.05124  -0.16519   0.00500
   25 C2      .S       -0.44934   0.13165  -0.19058  -0.52765  -0.04020
   26 C2      .X       -0.00000  -0.00000  -0.00000   0.00000   0.00000
   27 C2      .Y        0.39222  -0.06647   0.12062  -0.27769   0.04592
   28 C2      .Z       -0.14535  -0.04716   0.11233  -0.08303   0.04219
   29 C2      .XX      -0.00777   0.00099   0.00060  -0.01338   0.00087
   30 C2      .YY      -0.04240   0.00188  -0.00037  -0.03546   0.00128
   31 C2      .ZZ      -0.03961   0.00144   0.00351  -0.01785   0.00135
   32 C2      .XY      -0.00000   0.00000   0.00000  -0.00000  -0.00000
   33 C2      .XZ       0.00000  -0.00000   0.00000  -0.00000  -0.00000
   34 C2      .YZ       0.03460   0.00046  -0.00155  -0.00889  -0.00089
   35 C3      .S       -0.00071   0.01171  -0.00758   0.00471  -0.09269
   36 C3      .S       -0.04529   0.03137   0.01484  -0.01916   0.36952
   37 C3      .X       -0.00000   0.00000  -0.00000  -0.00000  -0.00000
   38 C3      .Y       -0.07196   0.09359   0.04041  -0.04837  -0.69780
   39 C3      .Z        0.05197   0.05124  -0.01915  -0.00500   0.16519
   40 C3      .S        0.19742  -0.19058   0.13165   0.04020   0.52765
   41 C3      .X        0.00000  -0.00000   0.00000   0.00000   0.00000
   42 C3      .Y        0.08373  -0.12062   0.06647   0.04592  -0.27769
   43 C3      .Z       -0.07012   0.11233  -0.04716  -0.04219   0.08303
   44 C3      .XX      -0.00351   0.00060   0.00099  -0.00087   0.01338
   45 C3      .YY       0.00216  -0.00037   0.00188  -0.00128   0.03546
   46 C3      .ZZ       0.00171   0.00351   0.00144  -0.00135   0.01785
   47 C3      .XY       0.00000   0.00000  -0.00000  -0.00000   0.00000
   48 C3      .XZ       0.00000  -0.00000  -0.00000   0.00000  -0.00000
   49 C3      .YZ       0.00398   0.00155  -0.00046  -0.00089  -0.00889
   50 C4      .S       -0.00892   0.01065  -0.09340  -0.01218  -0.00686
   51 C4      .S       -0.02801   0.04505   0.34069  -0.05429   0.00092
   52 C4      .X       -0.00000  -0.00000   0.00000   0.00000  -0.00000
   53 C4      .Y       -0.12362   0.00818   0.42108   0.10367  -0.03178
   54 C4      .Z        0.06953   0.09073  -0.61334  -0.04278   0.03310
   55 C4      .S        0.20744  -0.23675   0.72785   0.15221   0.17325
   56 C4      .X        0.00000  -0.00000  -0.00000  -0.00000   0.00000
   57 C4      .Y        0.03382   0.11144   0.09446  -0.07370  -0.06227
   58 C4      .Z        0.16551  -0.14358  -0.09986   0.12358   0.05800
   59 C4      .XX       0.00162  -0.00222   0.02272   0.00046   0.00323
   60 C4      .YY       0.00544  -0.00119   0.03154  -0.00095   0.00411
   61 C4      .ZZ      -0.00240  -0.00266   0.04101   0.00177   0.00340
   62 C4      .XY       0.00000   0.00000   0.00000   0.00000   0.00000
   63 C4      .XZ       0.00000  -0.00000   0.00000  -0.00000  -0.00000
   64 C4      .YZ       0.00022   0.00220  -0.01355  -0.00210  -0.00046
   65 C5      .S       -0.00099  -0.09340   0.01065   0.00686   0.01218
   66 C5      .S        0.01189   0.34069   0.04505  -0.00092   0.05429
   67 C5      .X        0.00000  -0.00000  -0.00000  -0.00000   0.00000
   68 C5      .Y        0.01769  -0.42108  -0.00818  -0.03178   0.10367
   69 C5      .Z       -0.00349  -0.61334   0.09073  -0.03310   0.04278
   70 C5      .S       -0.12458   0.72785  -0.23675  -0.17325  -0.15221
   71 C5      .X       -0.00000   0.00000   0.00000   0.00000  -0.00000
   72 C5      .Y        0.00556  -0.09446  -0.11144  -0.06227  -0.07370
   73 C5      .Z       -0.13646  -0.09986  -0.14358  -0.05800  -0.12358
   74 C5      .XX       0.00029   0.02272  -0.00222  -0.00323  -0.00046
   75 C5      .YY      -0.00106   0.03154  -0.00119  -0.00411   0.00095
   76 C5      .ZZ      -0.00104   0.04101  -0.00266  -0.00340  -0.00177
   77 C5      .XY       0.00000   0.00000   0.00000   0.00000   0.00000
   78 C5      .XZ       0.00000  -0.00000  -0.00000   0.00000  -0.00000
   79 C5      .YZ       0.00072   0.01355  -0.00220  -0.00046  -0.00210
   80 H6      .S       -0.03794   0.00172  -0.00309   0.91158  -0.00370
   81 H6      .S       -0.02676   0.00477  -0.06187   0.49761  -0.03234
   82 H7      .S        0.01959  -0.00309   0.00172   0.00370  -0.91158
   83 H7      .S        0.03829  -0.06187   0.00477   0.03234  -0.49761
   84 H8      .S       -0.02415  -0.00455  -0.86325   0.00561   0.00183
   85 H8      .S       -0.02105  -0.06899  -0.49456   0.06839   0.00499
   86 H9      .S       -0.00801  -0.86325  -0.00455  -0.00183  -0.00561
   87 H9      .S       -0.03714  -0.49456  -0.06899  -0.00499  -0.06839
                          31        32        33        34        35
                           V         V         V         V         V    
     Eigenvalues --    16.74383  18.83754  18.83754  12.19419  13.86158
    1 S1      .S       -0.00000  -0.00081  -0.00081   0.00000  -0.03435
    2 S1      .S        0.00000   0.00022   0.00022  -0.00000  -0.02285
    3 S1      .X       -0.00000   0.00000  -0.00000   0.00000   0.00000
    4 S1      .Y        0.01407   0.01210  -0.01210   0.17569  -0.00000
    5 S1      .Z       -0.00000   0.02233   0.02233  -0.00000  -0.03530
    6 S1      .S       -0.00000  -0.02507  -0.02507   0.00000  -1.17680
    7 S1      .X       -0.00000  -0.00000   0.00000  -0.00000  -0.00000
    8 S1      .Y       -0.05245  -0.06752   0.06752  -0.79216   0.00000
    9 S1      .Z        0.00000  -0.06672  -0.06672   0.00000   0.13332
   10 S1      .S       -0.00000  -0.03048  -0.03048   0.00000   3.96039
   11 S1      .X        0.00000  -0.00000  -0.00000   0.00000   0.00000
   12 S1      .Y       -0.02983   0.05569  -0.05569   2.57933   0.00000
   13 S1      .Z        0.00000  -0.01884  -0.01884  -0.00000  -2.45005
   14 S1      .XX       0.00000  -0.00096  -0.00096  -0.00000   0.43126
   15 S1      .YY       0.00000  -0.00039  -0.00039   0.00000  -0.37505
   16 S1      .ZZ      -0.00000   0.00070   0.00070  -0.00000   0.19899
   17 S1      .XY       0.00000  -0.00000  -0.00000  -0.00000   0.00000
   18 S1      .XZ       0.00000  -0.00000   0.00000   0.00000  -0.00000
   19 S1      .YZ       0.00091   0.00223  -0.00223  -0.14292   0.00000
   20 C2      .S        0.00612   0.09191   0.00231   0.00937   0.05259
   21 C2      .S        0.01053  -0.60874   0.00768   0.12194   0.41015
   22 C2      .X       -0.00000  -0.00000   0.00000   0.00000  -0.00000
   23 C2      .Y        0.12093   0.26691  -0.01832  -0.01244  -0.09795
   24 C2      .Z       -0.04501   0.71984   0.00547   0.06155   0.05460
   25 C2      .S       -0.01273  -0.00127  -0.25291  -0.23440  -2.42727
   26 C2      .X        0.00000   0.00000   0.00000  -0.00000   0.00000
   27 C2      .Y       -0.09391   0.06497   0.09312  -0.29706   1.34792
   28 C2      .Z        0.07753   0.19321   0.16939  -1.44253  -0.30230
   29 C2      .XX      -0.00044  -0.01846  -0.00126   0.01382   0.02358
   30 C2      .YY       0.00149  -0.03177  -0.00128  -0.00286   0.03589
   31 C2      .ZZ       0.00220  -0.04512  -0.00068  -0.00312   0.05290
   32 C2      .XY      -0.00000   0.00000  -0.00000   0.00000   0.00000
   33 C2      .XZ      -0.00000  -0.00000  -0.00000  -0.00000  -0.00000
   34 C2      .YZ       0.00318  -0.01444  -0.00013   0.01438  -0.02822
   35 C3      .S       -0.00612   0.00231   0.09191  -0.00937   0.05259
   36 C3      .S       -0.01053   0.00768  -0.60874  -0.12194   0.41015
   37 C3      .X        0.00000  -0.00000   0.00000  -0.00000   0.00000
   38 C3      .Y        0.12093   0.01832  -0.26691  -0.01244   0.09795
   39 C3      .Z        0.04501   0.00547   0.71984  -0.06155   0.05460
   40 C3      .S        0.01273  -0.25291  -0.00127   0.23440  -2.42727
   41 C3      .X       -0.00000   0.00000  -0.00000  -0.00000  -0.00000
   42 C3      .Y       -0.09391  -0.09312  -0.06497  -0.29706  -1.34792
   43 C3      .Z       -0.07753   0.16939   0.19321   1.44253  -0.30230
   44 C3      .XX       0.00044  -0.00126  -0.01846  -0.01382   0.02358
   45 C3      .YY      -0.00149  -0.00128  -0.03177   0.00286   0.03589
   46 C3      .ZZ      -0.00220  -0.00068  -0.04512   0.00312   0.05290
   47 C3      .XY       0.00000   0.00000   0.00000   0.00000   0.00000
   48 C3      .XZ      -0.00000  -0.00000  -0.00000  -0.00000  -0.00000
   49 C3      .YZ       0.00318   0.00013   0.01444   0.01438   0.02822
   50 C4      .S       -0.09306  -0.08815   0.00262   0.00537   0.00535
   51 C4      .S        0.56306   0.66380  -0.02069   0.06080   0.03766
   52 C4      .X        0.00000   0.00000  -0.00000   0.00000  -0.00000
   53 C4      .Y       -0.77309   0.34382  -0.00984   0.00203   0.03978
   54 C4      .Z       -0.03557   0.76589  -0.12145  -0.03581   0.05496
   55 C4      .S        0.09281  -0.02871   0.29395  -1.04561   0.25281
   56 C4      .X       -0.00000  -0.00000  -0.00000  -0.00000  -0.00000
   57 C4      .Y       -0.13314   0.12253   0.02884  -0.33219  -0.19490
   58 C4      .Z       -0.00609   0.00356   0.29850  -0.68229   0.30619
   59 C4      .XX       0.01397   0.02146   0.00582  -0.02933   0.00196
   60 C4      .YY       0.04786   0.02637   0.01002  -0.02392   0.00311
   61 C4      .ZZ       0.01747   0.05214   0.00592  -0.02585   0.01341
   62 C4      .XY      -0.00000  -0.00000   0.00000  -0.00000  -0.00000
   63 C4      .XZ      -0.00000  -0.00000  -0.00000   0.00000  -0.00000
   64 C4      .YZ      -0.00256   0.00983  -0.00184  -0.00063  -0.00169
   65 C5      .S        0.09306   0.00262  -0.08815  -0.00537   0.00535
   66 C5      .S       -0.56306  -0.02069   0.66380  -0.06080   0.03766
   67 C5      .X       -0.00000   0.00000  -0.00000  -0.00000  -0.00000
   68 C5      .Y       -0.77309   0.00984  -0.34382   0.00203  -0.03978
   69 C5      .Z        0.03557  -0.12145   0.76589   0.03581   0.05496
   70 C5      .S       -0.09281   0.29395  -0.02871   1.04561   0.25281
   71 C5      .X        0.00000  -0.00000   0.00000   0.00000   0.00000
   72 C5      .Y       -0.13314  -0.02884  -0.12253  -0.33219   0.19490
   73 C5      .Z        0.00609   0.29850   0.00356   0.68229   0.30619
   74 C5      .XX      -0.01397   0.00582   0.02146   0.02933   0.00196
   75 C5      .YY      -0.04786   0.01002   0.02637   0.02392   0.00311
   76 C5      .ZZ      -0.01747   0.00592   0.05214   0.02585   0.01341
   77 C5      .XY       0.00000   0.00000   0.00000   0.00000   0.00000
   78 C5      .XZ      -0.00000  -0.00000  -0.00000  -0.00000  -0.00000
   79 C5      .YZ      -0.00256   0.00184  -0.00983  -0.00063   0.00169
   80 H6      .S        0.02293  -0.06332  -0.00153   0.13856  -0.01048
   81 H6      .S        0.06110   0.00582  -0.03083   0.04201  -0.35404
   82 H7      .S       -0.02293  -0.00153  -0.06332  -0.13856  -0.01048
   83 H7      .S       -0.06110  -0.03083   0.00582  -0.04201  -0.35404
   84 H8      .S        0.03964   0.04096   0.03047  -0.00097   0.02531
   85 H8      .S       -0.03969  -0.07757   0.09251  -0.06665   0.12227
   86 H9      .S       -0.03964   0.03047   0.04096   0.00097   0.02531
   87 H9      .S        0.03969   0.09251  -0.07757   0.06665   0.12227
                          36        37        38        39        40
                           V         V         V         V         V    
     Eigenvalues --    15.73901  16.33981  16.33981  16.54263  16.54263
    1 S1      .S       -0.00000   0.00418   0.00418  -0.00176  -0.00176
    2 S1      .S        0.00000  -0.00603  -0.00603  -0.00683  -0.00683
    3 S1      .X        0.19882  -0.00000   0.00000   0.00000  -0.00000
    4 S1      .Y       -0.00000   0.01100  -0.01100   0.00613  -0.00613
    5 S1      .Z       -0.00000   0.01784   0.01784  -0.00247  -0.00247
    6 S1      .S       -0.00000   0.10298   0.10298  -0.08188  -0.08188
    7 S1      .X       -0.82810   0.00000   0.00000  -0.00000  -0.00000
    8 S1      .Y        0.00000  -0.05777   0.05777  -0.05667   0.05667
    9 S1      .Z        0.00000  -0.11180  -0.11180   0.04328   0.04328
   10 S1      .S       -0.00000   0.21382   0.21382  -0.09701  -0.09701
   11 S1      .X        1.06004   0.00000  -0.00000   0.00000   0.00000
   12 S1      .Y       -0.00000  -0.08378   0.08378   0.01955  -0.01955
   13 S1      .Z        0.00000  -0.10351  -0.10351   0.03668   0.03668
   14 S1      .XX      -0.00000  -0.00348  -0.00348   0.00162   0.00162
   15 S1      .YY      -0.00000  -0.00349  -0.00349   0.00190   0.00190
   16 S1      .ZZ      -0.00000  -0.00333  -0.00333   0.00227   0.00227
   17 S1      .XY      -0.00000   0.00000  -0.00000   0.00000  -0.00000
   18 S1      .XZ       0.66134   0.00000   0.00000  -0.00000  -0.00000
   19 S1      .YZ       0.00000  -0.00050   0.00050  -0.00031   0.00031
   20 C2      .S       -0.00000  -0.00791  -0.00521  -0.01018  -0.00848
   21 C2      .S       -0.00000  -0.04049  -0.12846  -0.04032  -0.03608
   22 C2      .X        0.02803  -0.00000   0.00000  -0.00000   0.00000
   23 C2      .Y       -0.00000   0.01348  -0.20415  -0.02367   0.00762
   24 C2      .Z        0.00000  -0.00820  -0.01174  -0.04848   0.03136
   25 C2      .S       -0.00000   0.18908   0.76715   1.08915  -0.35141
   26 C2      .X       -0.18644  -0.00000   0.00000  -0.00000   0.00000
   27 C2      .Y       -0.00000  -0.28801   1.88768  -0.84795   0.08351
   28 C2      .Z        0.00000  -0.10490   0.53439  -0.40002   0.10337
   29 C2      .XX      -0.00000  -0.00302  -0.00878   0.00343  -0.00663
   30 C2      .YY       0.00000  -0.00297  -0.00862   0.00345  -0.00649
   31 C2      .ZZ      -0.00000  -0.00303  -0.00888   0.00341  -0.00658
   32 C2      .XY      -0.03228  -0.00000  -0.00000  -0.00000   0.00000
   33 C2      .XZ       0.01858  -0.00000   0.00000  -0.00000   0.00000
   34 C2      .YZ      -0.00000   0.00001   0.00027  -0.00029  -0.00001
   35 C3      .S       -0.00000  -0.00521  -0.00791  -0.00848  -0.01018
   36 C3      .S        0.00000  -0.12846  -0.04049  -0.03608  -0.04032
   37 C3      .X        0.02803   0.00000  -0.00000   0.00000   0.00000
   38 C3      .Y        0.00000   0.20415  -0.01348  -0.00762   0.02367
   39 C3      .Z        0.00000  -0.01174  -0.00820   0.03136  -0.04848
   40 C3      .S        0.00000   0.76715   0.18908  -0.35141   1.08915
   41 C3      .X       -0.18644  -0.00000   0.00000  -0.00000  -0.00000
   42 C3      .Y        0.00000  -1.88768   0.28801  -0.08351   0.84795
   43 C3      .Z       -0.00000   0.53439  -0.10490   0.10337  -0.40002
   44 C3      .XX      -0.00000  -0.00878  -0.00302  -0.00663   0.00343
   45 C3      .YY      -0.00000  -0.00862  -0.00297  -0.00649   0.00345
   46 C3      .ZZ      -0.00000  -0.00888  -0.00303  -0.00658   0.00341
   47 C3      .XY       0.03228  -0.00000   0.00000  -0.00000  -0.00000
   48 C3      .XZ       0.01858   0.00000  -0.00000   0.00000   0.00000
   49 C3      .YZ      -0.00000  -0.00027  -0.00001   0.00001   0.00029
   50 C4      .S        0.00000  -0.00759  -0.00742   0.00685  -0.00848
   51 C4      .S       -0.00000  -0.00923  -0.06652  -0.11154  -0.09997
   52 C4      .X        0.01910  -0.00000  -0.00000   0.00000   0.00000
   53 C4      .Y       -0.00000   0.01818   0.00476  -0.14319  -0.04478
   54 C4      .Z        0.00000  -0.01289   0.02796   0.20411   0.00048
   55 C4      .S        0.00000  -0.44491   0.81798  -0.03078   1.13351
   56 C4      .X        0.01301   0.00000   0.00000   0.00000  -0.00000
   57 C4      .Y        0.00000   0.07048  -0.38930   1.44401  -0.58991
   58 C4      .Z        0.00000  -0.09216   0.66144  -2.26363   0.77350
   59 C4      .XX      -0.00000  -0.01358   0.01583  -0.01223   0.02149
   60 C4      .YY       0.00000  -0.01340   0.01599  -0.01234   0.02132
   61 C4      .ZZ       0.00000  -0.01361   0.01571  -0.01221   0.02160
   62 C4      .XY      -0.00227  -0.00000  -0.00000  -0.00000   0.00000
   63 C4      .XZ      -0.00679   0.00000   0.00000   0.00000   0.00000
   64 C4      .YZ      -0.00000  -0.00011   0.00016  -0.00020   0.00015
   65 C5      .S        0.00000  -0.00742  -0.00759  -0.00848   0.00685
   66 C5      .S        0.00000  -0.06652  -0.00923  -0.09997  -0.11154
   67 C5      .X        0.01910   0.00000  -0.00000  -0.00000  -0.00000
   68 C5      .Y        0.00000  -0.00476  -0.01818   0.04478   0.14319
   69 C5      .Z       -0.00000   0.02796  -0.01289   0.00048   0.20411
   70 C5      .S       -0.00000   0.81798  -0.44491   1.13351  -0.03078
   71 C5      .X        0.01301  -0.00000   0.00000   0.00000   0.00000
   72 C5      .Y        0.00000   0.38930  -0.07048   0.58991  -1.44401
   73 C5      .Z       -0.00000   0.66144  -0.09216   0.77350  -2.26363
   74 C5      .XX       0.00000   0.01583  -0.01358   0.02149  -0.01223
   75 C5      .YY       0.00000   0.01599  -0.01340   0.02132  -0.01234
   76 C5      .ZZ      -0.00000   0.01571  -0.01361   0.02160  -0.01221
   77 C5      .XY       0.00227   0.00000  -0.00000  -0.00000  -0.00000
   78 C5      .XZ      -0.00679  -0.00000  -0.00000  -0.00000   0.00000
   79 C5      .YZ       0.00000  -0.00016   0.00011  -0.00015   0.00020
   80 H6      .S        0.00000   0.03108   0.86457   0.05860   0.00723
   81 H6      .S        0.00000   0.13783  -2.96111   0.32465   0.01327
   82 H7      .S       -0.00000   0.86457   0.03108   0.00723   0.05860
   83 H7      .S        0.00000  -2.96111   0.13783   0.01327   0.32465
   84 H8      .S        0.00000   0.01216   0.05152   0.83486   0.05893
   85 H8      .S        0.00000   0.02003   0.28858  -3.18506   0.34209
   86 H9      .S        0.00000   0.05152   0.01216   0.05893   0.83486
   87 H9      .S       -0.00000   0.28858   0.02003   0.34209  -3.18506
                          41        42        43        44        45
                           V         V         V         V         V    
     Eigenvalues --    17.37399  20.09723  20.09723  21.17277  21.57367
    1 S1      .S       -0.02995   0.00618   0.00618  -0.00000  -0.00181
    2 S1      .S        0.03229  -0.01128  -0.01128  -0.00000   0.00657
    3 S1      .X        0.00000   0.00000  -0.00000  -0.18229   0.00000
    4 S1      .Y        0.00000   0.03142  -0.03142   0.00000  -0.03043
    5 S1      .Z        0.18668   0.01314   0.01314  -0.00000  -0.05708
    6 S1      .S       -0.57249   0.14026   0.14026  -0.00000  -0.00887
    7 S1      .X       -0.00000  -0.00000   0.00000   0.76337  -0.00000
    8 S1      .Y        0.00000  -0.16058   0.16058  -0.00000   0.08239
    9 S1      .Z       -0.78694  -0.06980  -0.06980   0.00000   0.27433
   10 S1      .S        1.30900   0.14114   0.14114   0.00000  -0.20084
   11 S1      .X        0.00000  -0.00000  -0.00000  -1.13864   0.00000
   12 S1      .Y       -0.00000  -0.26569   0.26569   0.00000   0.49795
   13 S1      .Z        0.78973  -0.04260  -0.04260  -0.00000   0.31343
   14 S1      .XX       0.18023  -0.00213  -0.00213  -0.00000  -0.00949
   15 S1      .YY       0.24104  -0.00048  -0.00048   0.00000  -0.03374
   16 S1      .ZZ      -0.70693  -0.00206  -0.00206   0.00000  -0.02332
   17 S1      .XY      -0.00000  -0.00000   0.00000   0.00000   0.00000
   18 S1      .XZ      -0.00000  -0.00000   0.00000   0.78779  -0.00000
   19 S1      .YZ       0.00000   0.00418  -0.00418  -0.00000   0.02208
   20 C2      .S        0.00826   0.00732  -0.00446   0.00000  -0.04697
   21 C2      .S        0.05551  -0.06392   0.05487   0.00000  -0.86057
   22 C2      .X        0.00000   0.00000  -0.00000  -0.05751   0.00000
   23 C2      .Y        0.00931   0.04409  -0.00688   0.00000   0.33134
   24 C2      .Z        0.05951   0.07164  -0.12248   0.00000   0.67009
   25 C2      .S        0.04117  -1.02196   2.56519  -0.00000   3.66605
   26 C2      .X       -0.00000   0.00000  -0.00000   0.44662  -0.00000
   27 C2      .Y       -0.12146  -0.07664   0.38137  -0.00000  -2.38549
   28 C2      .Z       -0.68878   0.64163  -1.54769  -0.00000  -3.41412
   29 C2      .XX      -0.00993  -0.01131   0.03032   0.00000  -0.02547
   30 C2      .YY       0.04028  -0.01016   0.03297   0.00000  -0.05407
   31 C2      .ZZ       0.00384  -0.01261   0.05763  -0.00000   0.11884
   32 C2      .XY      -0.00000   0.00000  -0.00000  -0.03818   0.00000
   33 C2      .XZ      -0.00000   0.00000   0.00000   0.02244   0.00000
   34 C2      .YZ      -0.00941   0.00136   0.01727   0.00000  -0.16019
   35 C3      .S        0.00826  -0.00446   0.00732   0.00000   0.00448
   36 C3      .S        0.05551   0.05487  -0.06392   0.00000   0.05599
   37 C3      .X        0.00000   0.00000   0.00000  -0.05751   0.00000
   38 C3      .Y       -0.00931   0.00688  -0.04409   0.00000   0.02710
   39 C3      .Z        0.05951  -0.12248   0.07164  -0.00000   0.04729
   40 C3      .S        0.04117   2.56519  -1.02196  -0.00000  -0.40881
   41 C3      .X        0.00000  -0.00000   0.00000   0.44662   0.00000
   42 C3      .Y        0.12146  -0.38137   0.07664   0.00000  -0.50438
   43 C3      .Z       -0.68878  -1.54769   0.64163   0.00000   0.71880
   44 C3      .XX      -0.00993   0.03032  -0.01131   0.00000   0.00118
   45 C3      .YY       0.04028   0.03297  -0.01016   0.00000   0.00089
   46 C3      .ZZ       0.00384   0.05763  -0.01261   0.00000   0.00055
   47 C3      .XY       0.00000  -0.00000  -0.00000   0.03818  -0.00000
   48 C3      .XZ      -0.00000   0.00000  -0.00000   0.02244  -0.00000
   49 C3      .YZ       0.00941  -0.01727  -0.00136   0.00000  -0.00102
   50 C4      .S       -0.00019  -0.00307  -0.01330  -0.00000   0.00302
   51 C4      .S        0.03170   0.02155   0.08171   0.00000   0.22242
   52 C4      .X        0.00000  -0.00000   0.00000  -0.01224   0.00000
   53 C4      .Y        0.01171   0.09570   0.59217  -0.00000  -0.06696
   54 C4      .Z       -0.02457   0.07774   0.49257  -0.00000  -0.04798
   55 C4      .S       -0.55156  -1.42294  -0.17318  -0.00000  -3.73934
   56 C4      .X        0.00000  -0.00000   0.00000  -0.07178  -0.00000
   57 C4      .Y       -0.23706   1.38864  -3.14071   0.00000  -0.53258
   58 C4      .Z       -0.09877   1.52360  -2.78747  -0.00000  -2.27862
   59 C4      .XX      -0.00770  -0.03506  -0.10918   0.00000  -0.08526
   60 C4      .YY      -0.00753  -0.07282   0.05525   0.00000  -0.10017
   61 C4      .ZZ      -0.03194  -0.03836  -0.15395  -0.00000  -0.06739
   62 C4      .XY      -0.00000   0.00000  -0.00000  -0.00272   0.00000
   63 C4      .XZ      -0.00000  -0.00000   0.00000  -0.00873   0.00000
   64 C4      .YZ       0.01064   0.00801  -0.07689   0.00000  -0.01834
   65 C5      .S       -0.00019  -0.01330  -0.00307  -0.00000   0.01593
   66 C5      .S        0.03170   0.08171   0.02155   0.00000   0.01439
   67 C5      .X       -0.00000   0.00000  -0.00000  -0.01224  -0.00000
   68 C5      .Y       -0.01171  -0.59217  -0.09570   0.00000   0.01397
   69 C5      .Z       -0.02457   0.49257   0.07774  -0.00000  -0.00258
   70 C5      .S       -0.55156  -0.17318  -1.42294   0.00000   0.76731
   71 C5      .X       -0.00000   0.00000  -0.00000  -0.07178  -0.00000
   72 C5      .Y        0.23706   3.14071  -1.38864  -0.00000  -0.27434
   73 C5      .Z       -0.09877  -2.78747   1.52360   0.00000   0.65074
   74 C5      .XX      -0.00770  -0.10918  -0.03506  -0.00000   0.02481
   75 C5      .YY      -0.00753   0.05525  -0.07282  -0.00000   0.02433
   76 C5      .ZZ      -0.03194  -0.15395  -0.03836   0.00000   0.02270
   77 C5      .XY      -0.00000  -0.00000  -0.00000   0.00272   0.00000
   78 C5      .XZ       0.00000  -0.00000  -0.00000  -0.00873  -0.00000
   79 C5      .YZ      -0.01064   0.07689  -0.00801   0.00000  -0.00628
   80 H6      .S        0.03557   0.03991  -0.14936  -0.00000   0.30413
   81 H6      .S        0.14479   0.05572  -0.16477   0.00000   0.96704
   82 H7      .S        0.03557  -0.14936   0.03991   0.00000  -0.09232
   83 H7      .S        0.14479  -0.16477   0.05572   0.00000  -0.25558
   84 H8      .S        0.04786   0.17863  -0.09026   0.00000  -0.03423
   85 H8      .S        0.06021   0.22952  -0.25997  -0.00000  -0.39265
   86 H9      .S        0.04786  -0.09026   0.17863  -0.00000  -0.01536
   87 H9      .S        0.06021  -0.25997   0.22952  -0.00000   0.01519
                          46        47        48        49        50
                           V         V         V         V         V    
     Eigenvalues --    21.57367  21.80221  24.80127  29.50818  29.50818
    1 S1      .S       -0.00181  -0.00592   0.00000  -0.00338  -0.00338
    2 S1      .S        0.00657   0.03646  -0.00000   0.00625   0.00625
    3 S1      .X        0.00000  -0.00000   0.00000   0.00000   0.00000
    4 S1      .Y        0.03043   0.00000   0.00000   0.00144  -0.00144
    5 S1      .Z       -0.05708   0.15068  -0.00000  -0.00303  -0.00303
    6 S1      .S       -0.00887   0.02943   0.00000  -0.06444  -0.06444
    7 S1      .X       -0.00000   0.00000  -0.00000  -0.00000  -0.00000
    8 S1      .Y       -0.08239  -0.00000   0.00000   0.03266  -0.03266
    9 S1      .Z        0.27433  -0.66472   0.00000   0.01534   0.01534
   10 S1      .S       -0.20084  -0.25661  -0.00000  -0.18045  -0.18045
   11 S1      .X       -0.00000  -0.00000   0.00000   0.00000  -0.00000
   12 S1      .Y       -0.49795  -0.00000   0.00000  -0.09741   0.09741
   13 S1      .Z        0.31343   0.88911   0.00000   0.04453   0.04453
   14 S1      .XX      -0.00949   0.00315   0.00000  -0.00265  -0.00265
   15 S1      .YY      -0.03374  -0.82436  -0.00000   0.00245   0.00245
   16 S1      .ZZ      -0.02332   0.71228  -0.00000  -0.01404  -0.01404
   17 S1      .XY      -0.00000   0.00000   1.02746  -0.00000   0.00000
   18 S1      .XZ      -0.00000   0.00000   0.00000  -0.00000   0.00000
   19 S1      .YZ      -0.02208  -0.00000  -0.00000   0.00168  -0.00168
   20 C2      .S        0.00448   0.00307  -0.00000   0.03354  -0.00050
   21 C2      .S        0.05599  -0.01625  -0.00000   0.10655  -0.02617
   22 C2      .X        0.00000  -0.00000   0.00891  -0.00000  -0.00000
   23 C2      .Y       -0.02710  -0.03238  -0.00000  -0.07998   0.00851
   24 C2      .Z        0.04729  -0.02318   0.00000   0.00406  -0.02672
   25 C2      .S       -0.40881   0.04526   0.00000  -1.78832   0.24354
   26 C2      .X        0.00000  -0.00000  -0.23247   0.00000   0.00000
   27 C2      .Y        0.50438   0.46313  -0.00000   0.36472  -0.61600
   28 C2      .Z        0.71880   0.53173   0.00000   1.07066  -0.02320
   29 C2      .XX       0.00118   0.01238  -0.00000   0.00150  -0.00496
   30 C2      .YY       0.00089  -0.02354  -0.00000   0.04981  -0.00261
   31 C2      .ZZ       0.00055   0.03025  -0.00000   0.07570  -0.00079
   32 C2      .XY       0.00000   0.00000   0.03982  -0.00000  -0.00000
   33 C2      .XZ       0.00000  -0.00000  -0.03467  -0.00000   0.00000
   34 C2      .YZ       0.00102  -0.02243  -0.00000   0.07266  -0.00427
   35 C3      .S       -0.04697   0.00307  -0.00000  -0.00050   0.03354
   36 C3      .S       -0.86057  -0.01625  -0.00000  -0.02617   0.10655
   37 C3      .X        0.00000  -0.00000  -0.00891   0.00000   0.00000
   38 C3      .Y       -0.33134   0.03238  -0.00000  -0.00851   0.07998
   39 C3      .Z        0.67009  -0.02318  -0.00000  -0.02672   0.00406
   40 C3      .S        3.66605   0.04526   0.00000   0.24354  -1.78832
   41 C3      .X       -0.00000  -0.00000   0.23247  -0.00000   0.00000
   42 C3      .Y        2.38549  -0.46313   0.00000   0.61600  -0.36472
   43 C3      .Z       -3.41412   0.53173   0.00000  -0.02320   1.07066
   44 C3      .XX      -0.02547   0.01238  -0.00000  -0.00496   0.00150
   45 C3      .YY      -0.05407  -0.02354   0.00000  -0.00261   0.04981
   46 C3      .ZZ       0.11884   0.03025   0.00000  -0.00079   0.07570
   47 C3      .XY       0.00000  -0.00000   0.03982  -0.00000   0.00000
   48 C3      .XZ      -0.00000  -0.00000   0.03467   0.00000  -0.00000
   49 C3      .YZ       0.16019   0.02243   0.00000   0.00427  -0.07266
   50 C4      .S        0.01593  -0.00941  -0.00000  -0.07123   0.02638
   51 C4      .S        0.01439  -0.10029  -0.00000  -1.78142   0.21597
   52 C4      .X       -0.00000  -0.00000  -0.02962   0.00000   0.00000
   53 C4      .Y       -0.01397  -0.00108   0.00000  -0.27718   0.15801
   54 C4      .Z       -0.00258   0.03589  -0.00000   0.22858   0.02205
   55 C4      .S        0.76731   0.64821   0.00000   5.99371  -2.08472
   56 C4      .X       -0.00000   0.00000   0.13946  -0.00000  -0.00000
   57 C4      .Y        0.27434  -0.01330  -0.00000  -0.13782   1.38241
   58 C4      .Z        0.65074   0.34301   0.00000   0.08847  -0.23684
   59 C4      .XX       0.02481  -0.00333  -0.00000   0.15553  -0.05405
   60 C4      .YY       0.02433  -0.00403   0.00000   0.22651  -0.11749
   61 C4      .ZZ       0.02270   0.03084   0.00000  -0.44004  -0.03737
   62 C4      .XY      -0.00000   0.00000  -0.00487   0.00000  -0.00000
   63 C4      .XZ       0.00000  -0.00000   0.00786   0.00000  -0.00000
   64 C4      .YZ       0.00628  -0.01249   0.00000   0.01914  -0.00838
   65 C5      .S        0.00302  -0.00941   0.00000   0.02638  -0.07123
   66 C5      .S        0.22242  -0.10029   0.00000   0.21597  -1.78142
   67 C5      .X       -0.00000  -0.00000   0.02962  -0.00000  -0.00000
   68 C5      .Y        0.06696   0.00108   0.00000  -0.15801   0.27718
   69 C5      .Z       -0.04798   0.03589   0.00000   0.02205   0.22858
   70 C5      .S       -3.73934   0.64821  -0.00000  -2.08472   5.99371
   71 C5      .X        0.00000   0.00000  -0.13946   0.00000   0.00000
   72 C5      .Y        0.53258   0.01330  -0.00000  -1.38241   0.13782
   73 C5      .Z       -2.27862   0.34301  -0.00000  -0.23684   0.08847
   74 C5      .XX      -0.08526  -0.00333   0.00000  -0.05405   0.15553
   75 C5      .YY      -0.10017  -0.00403  -0.00000  -0.11749   0.22651
   76 C5      .ZZ      -0.06739   0.03084  -0.00000  -0.03737  -0.44004
   77 C5      .XY      -0.00000  -0.00000  -0.00487  -0.00000  -0.00000
   78 C5      .XZ      -0.00000   0.00000  -0.00786  -0.00000  -0.00000
   79 C5      .YZ       0.01834   0.01249   0.00000   0.00838  -0.01914
   80 H6      .S       -0.09232  -0.04077  -0.00000   0.01126   0.06634
   81 H6      .S       -0.25558  -0.38382  -0.00000  -0.02460   0.20127
   82 H7      .S        0.30413  -0.04077  -0.00000   0.06634   0.01126
   83 H7      .S        0.96704  -0.38382   0.00000   0.20127  -0.02460
   84 H8      .S       -0.01536   0.00457  -0.00000  -0.22632   0.00622
   85 H8      .S        0.01519   0.06878   0.00000  -1.03269  -0.18414
   86 H9      .S       -0.03423   0.00457  -0.00000   0.00622  -0.22632
   87 H9      .S       -0.39265   0.06878  -0.00000  -0.18414  -1.03269
                          51        52        53        54        55
                           V         V         V         V         V    
     Eigenvalues --    31.02805  31.02805  32.10488  32.10488  33.54028
    1 S1      .S       -0.00701  -0.00701   0.00000  -0.00000  -0.02599
    2 S1      .S        0.03753   0.03753  -0.00000  -0.00000   0.01809
    3 S1      .X       -0.00000   0.00000  -0.00686   0.00686   0.00000
    4 S1      .Y       -0.02295   0.02295  -0.00000  -0.00000  -0.07356
    5 S1      .Z        0.01121   0.01121  -0.00000   0.00000  -0.05025
    6 S1      .S       -0.16351  -0.16351   0.00000  -0.00000  -0.70437
    7 S1      .X        0.00000  -0.00000   0.02882  -0.02882  -0.00000
    8 S1      .Y        0.11179  -0.11179   0.00000   0.00000   0.48715
    9 S1      .Z       -0.02374  -0.02374   0.00000  -0.00000   0.41528
   10 S1      .S       -0.31381  -0.31381  -0.00000   0.00000  -1.12610
   11 S1      .X       -0.00000   0.00000  -0.02628   0.02628   0.00000
   12 S1      .Y        0.16095  -0.16095  -0.00000  -0.00000   0.38784
   13 S1      .Z        0.21946   0.21946   0.00000  -0.00000   0.54170
   14 S1      .XX       0.03019   0.03019  -0.00000   0.00000   0.00602
   15 S1      .YY       0.07726   0.07726  -0.00000   0.00000  -0.02192
   16 S1      .ZZ       0.07570   0.07570  -0.00000   0.00000   0.00590
   17 S1      .XY      -0.00000  -0.00000   0.00120   0.00120  -0.00000
   18 S1      .XZ       0.00000   0.00000   0.00587  -0.00587  -0.00000
   19 S1      .YZ       0.04497  -0.04497  -0.00000  -0.00000  -0.02009
   20 C2      .S       -0.00050  -0.07501  -0.00000  -0.00000   0.01006
   21 C2      .S       -0.00412  -1.51833   0.00000   0.00000   0.04099
   22 C2      .X        0.00000   0.00000   0.00058  -0.02010  -0.00000
   23 C2      .Y       -0.00535  -0.44088   0.00000   0.00000   0.01230
   24 C2      .Z        0.02553  -0.23596  -0.00000  -0.00000   0.03704
   25 C2      .S       -0.47396   5.22291  -0.00000  -0.00000  -0.06718
   26 C2      .X       -0.00000   0.00000   0.12100   0.24389   0.00000
   27 C2      .Y        0.06641   0.80147   0.00000   0.00000   0.42929
   28 C2      .Z        0.20616  -0.83050   0.00000   0.00000   0.11400
   29 C2      .XX      -0.00212  -0.05776   0.00000  -0.00000  -0.00275
   30 C2      .YY      -0.00829  -0.26078  -0.00000   0.00000  -0.00583
   31 C2      .ZZ      -0.00506   0.10344  -0.00000  -0.00000  -0.00294
   32 C2      .XY       0.00000   0.00000  -0.00370   0.03333  -0.00000
   33 C2      .XZ       0.00000   0.00000   0.00113   0.09720  -0.00000
   34 C2      .YZ      -0.00336   0.44288  -0.00000  -0.00000   0.00235
   35 C3      .S       -0.07501  -0.00050  -0.00000   0.00000  -0.03822
   36 C3      .S       -1.51833  -0.00412   0.00000   0.00000  -0.87573
   37 C3      .X       -0.00000  -0.00000   0.02010  -0.00058  -0.00000
   38 C3      .Y        0.44088   0.00535  -0.00000  -0.00000  -0.72778
   39 C3      .Z       -0.23596   0.02553  -0.00000   0.00000  -0.53638
   40 C3      .S        5.22291  -0.47396   0.00000  -0.00000   2.22311
   41 C3      .X        0.00000   0.00000  -0.24389  -0.12100   0.00000
   42 C3      .Y       -0.80147  -0.06641   0.00000   0.00000   3.61926
   43 C3      .Z       -0.83050   0.20616   0.00000  -0.00000   0.68818
   44 C3      .XX      -0.05776  -0.00212   0.00000   0.00000   0.03015
   45 C3      .YY      -0.26078  -0.00829  -0.00000   0.00000  -0.33641
   46 C3      .ZZ       0.10344  -0.00506  -0.00000  -0.00000   0.27203
   47 C3      .XY      -0.00000  -0.00000   0.03333  -0.00370   0.00000
   48 C3      .XZ      -0.00000  -0.00000  -0.09720  -0.00113   0.00000
   49 C3      .YZ      -0.44288   0.00336  -0.00000  -0.00000   0.20927
   50 C4      .S       -0.00480   0.02423   0.00000   0.00000   0.00987
   51 C4      .S       -0.07543   0.21247  -0.00000   0.00000   0.05802
   52 C4      .X       -0.00000   0.00000  -0.06775   0.78024  -0.00000
   53 C4      .Y       -0.00880  -0.09699  -0.00000   0.00000  -0.11451
   54 C4      .Z       -0.01002  -0.17846   0.00000   0.00000  -0.00945
   55 C4      .S        0.30645  -2.19418   0.00000   0.00000   1.21554
   56 C4      .X       -0.00000  -0.00000  -0.46625  -1.20648   0.00000
   57 C4      .Y        0.04127  -0.81001  -0.00000  -0.00000  -0.40665
   58 C4      .Z        0.79920  -1.49030   0.00000   0.00000   0.06940
   59 C4      .XX      -0.00803  -0.04192  -0.00000  -0.00000   0.03696
   60 C4      .YY       0.00126  -0.04609   0.00000  -0.00000   0.03987
   61 C4      .ZZ       0.00334  -0.17415   0.00000  -0.00000   0.03631
   62 C4      .XY       0.00000   0.00000   0.06448   0.48289  -0.00000
   63 C4      .XZ       0.00000   0.00000   0.00887   0.46815   0.00000
   64 C4      .YZ      -0.00335  -0.04370  -0.00000   0.00000   0.01472
   65 C5      .S        0.02423  -0.00480   0.00000   0.00000   0.00866
   66 C5      .S        0.21247  -0.07543   0.00000  -0.00000   0.11517
   67 C5      .X        0.00000  -0.00000  -0.78024   0.06775   0.00000
   68 C5      .Y        0.09699   0.00880  -0.00000   0.00000   0.01375
   69 C5      .Z       -0.17846  -0.01002  -0.00000   0.00000  -0.11151
   70 C5      .S       -2.19418   0.30645  -0.00000  -0.00000  -1.57869
   71 C5      .X        0.00000   0.00000   1.20648   0.46625  -0.00000
   72 C5      .Y        0.81001  -0.04127  -0.00000  -0.00000  -1.50108
   73 C5      .Z       -1.49030   0.79920  -0.00000  -0.00000  -1.23019
   74 C5      .XX      -0.04192  -0.00803   0.00000   0.00000  -0.04559
   75 C5      .YY      -0.04609   0.00126  -0.00000   0.00000  -0.07166
   76 C5      .ZZ      -0.17415   0.00334   0.00000   0.00000  -0.02476
   77 C5      .XY       0.00000   0.00000   0.48289   0.06448  -0.00000
   78 C5      .XZ      -0.00000  -0.00000  -0.46815  -0.00887   0.00000
   79 C5      .YZ       0.04370   0.00335  -0.00000  -0.00000   0.05565
   80 H6      .S        0.01490  -0.37051  -0.00000  -0.00000  -0.07926
   81 H6      .S       -0.02342  -1.27734   0.00000  -0.00000  -0.22478
   82 H7      .S       -0.37051   0.01490   0.00000   0.00000   0.53363
   83 H7      .S       -1.27734  -0.02342   0.00000   0.00000   1.21774
   84 H8      .S        0.06605   0.06035   0.00000   0.00000  -0.04768
   85 H8      .S        0.20510  -0.17082   0.00000   0.00000  -0.04258
   86 H9      .S        0.06035   0.06605   0.00000  -0.00000  -0.20883
   87 H9      .S       -0.17082   0.20510  -0.00000   0.00000  -0.53371
                          56        57        58        59        60
                           V         V         V         V         V    
     Eigenvalues --    33.54028  33.54305  34.21112  34.65260  34.65260
    1 S1      .S       -0.02599   0.00000  -0.06031   0.00833   0.00833
    2 S1      .S        0.01809  -0.00000   0.11421   0.01532   0.01532
    3 S1      .X       -0.00000  -0.00000   0.00000  -0.00000   0.00000
    4 S1      .Y        0.07356   0.05430  -0.00000  -0.03819   0.03819
    5 S1      .Z       -0.05025  -0.00000   0.07856   0.01270   0.01270
    6 S1      .S       -0.70437   0.00000  -2.22754   0.32078   0.32078
    7 S1      .X       -0.00000   0.00000  -0.00000   0.00000   0.00000
    8 S1      .Y       -0.48715  -0.35975   0.00000   0.24945  -0.24945
    9 S1      .Z        0.41528   0.00000  -0.39787  -0.14248  -0.14248
   10 S1      .S       -1.12610   0.00000   3.99276   0.18471   0.18471
   11 S1      .X        0.00000  -0.00000   0.00000   0.00000   0.00000
   12 S1      .Y       -0.38784  -0.41199   0.00000  -0.01033   0.01033
   13 S1      .Z        0.54170  -0.00000  -1.74512  -0.05601  -0.05601
   14 S1      .XX       0.00602   0.00000  -0.40586  -0.00679  -0.00679
   15 S1      .YY      -0.02192   0.00000   1.08650  -0.00538  -0.00538
   16 S1      .ZZ       0.00590  -0.00000   1.12209  -0.01548  -0.01548
   17 S1      .XY       0.00000   0.00000   0.00000  -0.00000   0.00000
   18 S1      .XZ      -0.00000  -0.00000  -0.00000  -0.00000   0.00000
   19 S1      .YZ       0.02009   1.21336  -0.00000  -0.00039   0.00039
   20 C2      .S       -0.03822  -0.04334   0.06802   0.00414   0.01526
   21 C2      .S       -0.87573  -0.31771   0.47184  -0.01605   0.09771
   22 C2      .X        0.00000   0.00000   0.00000   0.00000   0.00000
   23 C2      .Y        0.72778  -0.03950   0.01237   0.12781   0.01981
   24 C2      .Z       -0.53638   0.03318  -0.02005   0.22652  -0.13172
   25 C2      .S        2.22311   1.74595  -2.31430  -3.09015   1.22380
   26 C2      .X       -0.00000  -0.00000  -0.00000  -0.00000  -0.00000
   27 C2      .Y       -3.61926  -1.43744   1.24314   2.36163  -0.42532
   28 C2      .Z        0.68818  -0.18509  -0.62667   0.92341  -0.35814
   29 C2      .XX       0.03015  -0.04083   0.06128  -0.03464   0.01436
   30 C2      .YY      -0.33641   0.10187  -0.03935  -0.00530   0.00859
   31 C2      .ZZ       0.27203   0.10237  -0.02787  -0.08540   0.02427
   32 C2      .XY       0.00000  -0.00000  -0.00000   0.00000   0.00000
   33 C2      .XZ       0.00000  -0.00000  -0.00000   0.00000   0.00000
   34 C2      .YZ      -0.20927  -0.12138   0.08379   0.01214  -0.00683
   35 C3      .S        0.01006   0.04334   0.06802   0.01526   0.00414
   36 C3      .S        0.04099   0.31771   0.47184   0.09771  -0.01605
   37 C3      .X        0.00000   0.00000  -0.00000  -0.00000  -0.00000
   38 C3      .Y       -0.01230  -0.03950  -0.01237  -0.01981  -0.12781
   39 C3      .Z        0.03704  -0.03318  -0.02005  -0.13172   0.22652
   40 C3      .S       -0.06718  -1.74595  -2.31430   1.22380  -3.09015
   41 C3      .X       -0.00000   0.00000   0.00000  -0.00000   0.00000
   42 C3      .Y       -0.42929  -1.43744  -1.24314   0.42532  -2.36163
   43 C3      .Z        0.11400   0.18509  -0.62667  -0.35814   0.92341
   44 C3      .XX      -0.00275   0.04083   0.06128   0.01436  -0.03464
   45 C3      .YY      -0.00583  -0.10187  -0.03935   0.00859  -0.00530
   46 C3      .ZZ      -0.00294  -0.10237  -0.02787   0.02427  -0.08540
[...]
   43 C3      .Z        0.05010   0.17954   0.12065   0.01566   1.68210
   44 C3      .XX       0.00663   0.06687   0.02721  -1.00436   0.26879
   45 C3      .YY       0.02005   0.36608   0.02435   0.88690   0.15276
   46 C3      .ZZ       0.01971  -1.25317   0.00322   0.21316  -0.80499
   47 C3      .XY       0.00000   0.00000   0.00000  -0.00000   0.00000
   48 C3      .XZ       0.00000  -0.00000   0.00000   0.00000  -0.00000
   49 C3      .YZ       0.00407  -0.48891   0.00501   0.05161   1.02770
   50 C4      .S        0.01780   0.00259   0.00475   0.01159   0.00600
   51 C4      .S        0.14432  -0.02122   0.06877   0.04970   0.08061
   52 C4      .X        0.00000  -0.00000  -0.00000   0.00000   0.00000
   53 C4      .Y        0.17055  -0.05931  -0.01691  -0.06645   0.04402
   54 C4      .Z        0.18838   0.02782  -0.14229   0.03671  -0.00595
   55 C4      .S       -0.86740   1.04996  -0.87948   0.20302  -1.30576
   56 C4      .X        0.00000   0.00000  -0.00000  -0.00000  -0.00000
   57 C4      .Y        1.13572  -0.42485   0.03928   0.09082   0.25369
   58 C4      .Z       -0.81571   0.17649  -0.70438   0.04554  -0.72919
   59 C4      .XX       0.01606   0.02529   0.01355   0.03456  -0.01374
   60 C4      .YY       0.12297   0.01641  -0.04568   0.03003  -0.03661
   61 C4      .ZZ       0.07207   0.02944  -0.14394   0.02181  -0.03618
   62 C4      .XY       0.00000  -0.00000  -0.00000   0.00000   0.00000
   63 C4      .XZ      -0.00000  -0.00000  -0.00000   0.00000   0.00000
   64 C4      .YZ       0.17727  -0.03857   0.00766  -0.00877   0.00476
   65 C5      .S        0.00259   0.01780   0.01159   0.00475   0.01054
   66 C5      .S       -0.02122   0.14432   0.04970   0.06877  -0.03174
   67 C5      .X       -0.00000   0.00000  -0.00000   0.00000   0.00000
   68 C5      .Y        0.05931  -0.17055   0.06645   0.01691  -0.15099
   69 C5      .Z        0.02782   0.18838   0.03671  -0.14229   0.48379
   70 C5      .S        1.04996  -0.86740   0.20302  -0.87948   1.98331
   71 C5      .X        0.00000  -0.00000  -0.00000   0.00000   0.00000
   72 C5      .Y        0.42485  -1.13572  -0.09082  -0.03928   0.39369
   73 C5      .Z        0.17649  -0.81571   0.04554  -0.70438   1.29301
   74 C5      .XX       0.02529   0.01606   0.03456   0.01355   0.04856
   75 C5      .YY       0.01641   0.12297   0.03003  -0.04568   0.09676
   76 C5      .ZZ       0.02944   0.07207   0.02181  -0.14394   0.44561
   77 C5      .XY       0.00000   0.00000  -0.00000   0.00000   0.00000
   78 C5      .XZ       0.00000   0.00000   0.00000  -0.00000   0.00000
   79 C5      .YZ       0.03857  -0.17727   0.00877  -0.00766  -0.13460
   80 H6      .S       -0.17446  -0.03960  -0.42536  -0.01961   0.05536
   81 H6      .S        0.47744  -0.15373   0.03228  -0.16372   0.23042
   82 H7      .S       -0.03960  -0.17446  -0.01961  -0.42536  -0.10447
   83 H7      .S       -0.15373   0.47744  -0.16372   0.03228  -1.02113
   84 H8      .S       -0.12275  -0.02847   0.00899  -0.00501  -0.01591
   85 H8      .S       -0.54845   0.04086  -0.19981  -0.08103  -0.17164
   86 H9      .S       -0.02847  -0.12275  -0.00501   0.00899   0.02452
   87 H9      .S        0.04086  -0.54845  -0.08103  -0.19981   0.45172
                          76        77        78        79        80
                           V         V         V         V         V    
     Eigenvalues --    60.08899  63.11741  63.11741  67.17500  67.17500
    1 S1      .S       -0.00265   0.00175   0.00175  -0.00110  -0.00110
    2 S1      .S        0.01765  -0.00294  -0.00294  -0.00276  -0.00276
    3 S1      .X       -0.00000   0.00000  -0.00000   0.00000  -0.00000
    4 S1      .Y        0.03810  -0.00055   0.00055   0.01061  -0.01061
    5 S1      .Z       -0.03236   0.01413   0.01413  -0.01227  -0.01227
    6 S1      .S        0.11311   0.04287   0.04287  -0.02632  -0.02632
    7 S1      .X        0.00000  -0.00000   0.00000  -0.00000   0.00000
    8 S1      .Y       -0.14963  -0.00644   0.00644  -0.08728   0.08728
    9 S1      .Z        0.13389  -0.08686  -0.08686   0.09633   0.09633
   10 S1      .S       -0.35570   0.16513   0.16513  -0.35054  -0.35054
   11 S1      .X       -0.00000   0.00000  -0.00000   0.00000  -0.00000
   12 S1      .Y       -0.37141   0.10048  -0.10048  -0.04207   0.04207
   13 S1      .Z        0.05863  -0.09854  -0.09854   0.16173   0.16173
   14 S1      .XX      -0.04304  -0.00356  -0.00356  -0.00415  -0.00415
   15 S1      .YY      -0.11800  -0.01475  -0.01475  -0.00612  -0.00612
   16 S1      .ZZ      -0.11007   0.02171   0.02171  -0.03694  -0.03694
   17 S1      .XY      -0.00000   0.00000  -0.00000   0.00000  -0.00000
   18 S1      .XZ       0.00000  -0.00000   0.00000  -0.00000   0.00000
   19 S1      .YZ       0.06907  -0.01069   0.01069   0.00999  -0.00999
   20 C2      .S       -0.00290   0.00590   0.00798  -0.01880  -0.01111
   21 C2      .S       -0.27475   0.02974   0.03809  -0.07718  -0.04489
   22 C2      .X        0.00000  -0.00000  -0.00000  -0.00000  -0.00000
   23 C2      .Y       -0.17063  -0.00077   0.16375  -0.01684   0.06074
   24 C2      .Z        0.09083   0.01395   0.18264   0.10544   0.06606
   25 C2      .S       -0.28017   0.12374  -1.36499   0.93540  -0.37584
   26 C2      .X       -0.00000   0.00000   0.00000  -0.00000   0.00000
   27 C2      .Y        1.52223   0.05939   0.51239  -0.94484   0.14431
   28 C2      .Z        1.68210  -0.17426   0.72972  -0.16374   0.13495
   29 C2      .XX       0.26879  -0.00183  -0.01961  -0.03840  -0.03300
   30 C2      .YY       0.15276  -0.00415  -0.09886   0.06538  -0.05736
   31 C2      .ZZ      -0.80499  -0.01948  -0.08227  -0.17540  -0.00831
   32 C2      .XY       0.00000  -0.00000  -0.00000  -0.00000  -0.00000
   33 C2      .XZ       0.00000  -0.00000  -0.00000  -0.00000  -0.00000
   34 C2      .YZ      -1.02770   0.00305  -0.15557   0.01822  -0.02648
   35 C3      .S       -0.01295   0.00798   0.00590  -0.01111  -0.01880
   36 C3      .S       -0.08336   0.03809   0.02974  -0.04489  -0.07718
   37 C3      .X       -0.00000   0.00000  -0.00000   0.00000   0.00000
   38 C3      .Y       -0.01352  -0.16375   0.00077  -0.06074   0.01684
   39 C3      .Z       -0.01448   0.18264   0.01395   0.06606   0.10544
   40 C3      .S        0.79275  -1.36499   0.12374  -0.37584   0.93540
   41 C3      .X        0.00000  -0.00000  -0.00000  -0.00000   0.00000
   42 C3      .Y        0.63392  -0.51239  -0.05939  -0.14431   0.94484
   43 C3      .Z       -0.51137   0.72972  -0.17426   0.13495  -0.16374
   44 C3      .XX      -0.01585  -0.01961  -0.00183  -0.03300  -0.03840
   45 C3      .YY       0.00432  -0.09886  -0.00415  -0.05736   0.06538
   46 C3      .ZZ       0.00292  -0.08227  -0.01948  -0.00831  -0.17540
   47 C3      .XY       0.00000   0.00000  -0.00000  -0.00000  -0.00000
   48 C3      .XZ      -0.00000   0.00000  -0.00000   0.00000  -0.00000
   49 C3      .YZ      -0.00920   0.15557  -0.00305   0.02648  -0.01822
   50 C4      .S        0.01054   0.00931  -0.06813  -0.10037  -0.01034
   51 C4      .S       -0.03174   0.00683  -0.10824   1.38151  -0.11375
   52 C4      .X       -0.00000   0.00000  -0.00000  -0.00000  -0.00000
   53 C4      .Y        0.15099  -0.39714   0.21344  -0.02142  -0.17331
   54 C4      .Z        0.48379   0.00727   0.11800   0.22552   0.07894
   55 C4      .S        1.98331  -0.07388   1.82833  -1.72960   1.37032
   56 C4      .X        0.00000  -0.00000  -0.00000  -0.00000  -0.00000
   57 C4      .Y       -0.39369  -0.18097   0.64096   1.17440  -0.81439
   58 C4      .Z        1.29301  -0.28514   0.84843  -1.15815   0.89917
   59 C4      .XX       0.04856   0.03704   0.02301  -0.16226   0.02391
   60 C4      .YY       0.09676   0.43401  -1.42063  -0.79781   0.16222
   61 C4      .ZZ       0.44561   0.03621   0.68654  -0.70438   0.06563
   62 C4      .XY       0.00000   0.00000   0.00000  -0.00000  -0.00000
   63 C4      .XZ      -0.00000  -0.00000  -0.00000  -0.00000   0.00000
   64 C4      .YZ       0.13460   0.02012  -0.08156   1.06287  -0.12810
   65 C5      .S        0.00600  -0.06813   0.00931  -0.01034  -0.10037
   66 C5      .S        0.08061  -0.10824   0.00683  -0.11375   1.38151
   67 C5      .X        0.00000  -0.00000   0.00000  -0.00000   0.00000
   68 C5      .Y       -0.04402  -0.21344   0.39714   0.17331   0.02142
   69 C5      .Z       -0.00595   0.11800   0.00727   0.07894   0.22552
   70 C5      .S       -1.30576   1.82833  -0.07388   1.37032  -1.72960
   71 C5      .X       -0.00000   0.00000   0.00000   0.00000  -0.00000
   72 C5      .Y       -0.25369  -0.64096   0.18097   0.81439  -1.17440
   73 C5      .Z       -0.72919   0.84843  -0.28514   0.89917  -1.15815
   74 C5      .XX      -0.01374   0.02301   0.03704   0.02391  -0.16226
   75 C5      .YY      -0.03661  -1.42063   0.43401   0.16222  -0.79781
   76 C5      .ZZ      -0.03618   0.68654   0.03621   0.06563  -0.70438
   77 C5      .XY       0.00000  -0.00000  -0.00000   0.00000  -0.00000
   78 C5      .XZ       0.00000  -0.00000  -0.00000  -0.00000  -0.00000
   79 C5      .YZ      -0.00476   0.08156  -0.02012   0.12810  -1.06287
   80 H6      .S       -0.10447  -0.01248   0.01331   0.05867   0.00610
   81 H6      .S       -1.02113  -0.02734  -0.23319   0.36381  -0.00362
   82 H7      .S        0.05536   0.01331  -0.01248   0.00610   0.05867
   83 H7      .S        0.23042  -0.23319  -0.02734  -0.00362   0.36381
   84 H8      .S        0.02452  -0.04072  -0.15975   0.42247   0.04404
   85 H8      .S        0.45172   0.00030  -0.16449  -0.63934   0.47794
   86 H9      .S       -0.01591  -0.15975  -0.04072   0.04404   0.42247
   87 H9      .S       -0.17164  -0.16449   0.00030   0.47794  -0.63934
                          81        82        83        84        85
                           V         V         V         V         V    
     Eigenvalues --    69.17829  69.17829 104.38469 106.23790 106.23790
    1 S1      .S        0.00114   0.00114  -0.15804   0.00108   0.00108
    2 S1      .S        0.01180   0.01180   0.78277   0.00344   0.00344
    3 S1      .X       -0.00000   0.00000  -0.00000   0.00000  -0.00000
    4 S1      .Y       -0.01650   0.01650  -0.00000   0.01067  -0.01067
    5 S1      .Z        0.01097   0.01097   0.01340   0.00065   0.00065
    6 S1      .S        0.04277   0.04277  -5.95705   0.05328   0.05328
    7 S1      .X        0.00000  -0.00000   0.00000  -0.00000   0.00000
    8 S1      .Y        0.11761  -0.11761  -0.00000  -0.09096   0.09096
    9 S1      .Z       -0.08654  -0.08654  -0.08053  -0.02511  -0.02511
   10 S1      .S        0.02521   0.02521  -0.68463   0.04047   0.04047
   11 S1      .X       -0.00000   0.00000  -0.00000   0.00000  -0.00000
   12 S1      .Y       -0.17237   0.17237   0.00000  -0.00023   0.00023
   13 S1      .Z       -0.04858  -0.04858   0.53829  -0.01055  -0.01055
   14 S1      .XX       0.02673   0.02673   2.87538   0.00090   0.00090
   15 S1      .YY       0.01357   0.01357   2.59104  -0.00367  -0.00367
   16 S1      .ZZ       0.03385   0.03385   2.56648  -0.00674  -0.00674
   17 S1      .XY      -0.00000   0.00000  -0.00000  -0.00000   0.00000
   18 S1      .XZ      -0.00000   0.00000   0.00000  -0.00000   0.00000
   19 S1      .YZ      -0.02480   0.02480  -0.00000   0.01186  -0.01186
   20 C2      .S        0.01221   0.00906  -0.00193  -0.00328   0.02275
   21 C2      .S        0.11140   0.03802  -0.00402  -0.00623   0.15646
   22 C2      .X       -0.00000  -0.00000   0.00000  -0.00000   0.00000
   23 C2      .Y        0.10908  -0.01834  -0.00870   0.01257  -0.17977
   24 C2      .Z        0.38951  -0.07045  -0.00472  -0.03507  -0.40213
   25 C2      .S       -2.97376   0.68817   0.43087   0.66623  -1.15593
   26 C2      .X       -0.00000  -0.00000  -0.00000   0.00000  -0.00000
   27 C2      .Y        1.20656  -0.44814  -0.01389  -0.42469   0.63772
   28 C2      .Z        1.42873  -0.30405   0.18342  -0.22634   0.35300
   29 C2      .XX       0.00529   0.02518  -0.00474  -0.00069   0.07088
   30 C2      .YY      -0.07701   0.00304  -0.04060  -0.00062   0.10525
   31 C2      .ZZ      -0.26245   0.03291  -0.03998  -0.02080   0.35944
   32 C2      .XY      -0.00000  -0.00000  -0.00000  -0.00000   0.00000
   33 C2      .XZ      -0.00000  -0.00000  -0.00000  -0.00000   0.00000
   34 C2      .YZ      -0.11169   0.00771   0.04222   0.00626   0.11168
   35 C3      .S        0.00906   0.01221  -0.00193   0.02275  -0.00328
   36 C3      .S        0.03802   0.11140  -0.00402   0.15646  -0.00623
   37 C3      .X       -0.00000   0.00000   0.00000   0.00000  -0.00000
   38 C3      .Y        0.01834  -0.10908   0.00870   0.17977  -0.01257
   39 C3      .Z       -0.07045   0.38951  -0.00472  -0.40213  -0.03507
   40 C3      .S        0.68817  -2.97376   0.43087  -1.15593   0.66623
   41 C3      .X       -0.00000  -0.00000  -0.00000  -0.00000   0.00000
   42 C3      .Y        0.44814  -1.20656   0.01389  -0.63772   0.42469
   43 C3      .Z       -0.30405   1.42873   0.18342   0.35300  -0.22634
   44 C3      .XX       0.02518   0.00529  -0.00474   0.07088  -0.00069
   45 C3      .YY       0.00304  -0.07701  -0.04060   0.10525  -0.00062
   46 C3      .ZZ       0.03291  -0.26245  -0.03998   0.35944  -0.02080
   47 C3      .XY       0.00000  -0.00000   0.00000   0.00000   0.00000
   48 C3      .XZ      -0.00000   0.00000  -0.00000   0.00000  -0.00000
   49 C3      .YZ      -0.00771   0.11169  -0.04222  -0.11168  -0.00626
   50 C4      .S       -0.25565   0.02467  -0.00996   0.01415  -0.43286
   51 C4      .S        0.07083   0.25285  -0.06594   0.14506   2.68411
   52 C4      .X       -0.00000   0.00000  -0.00000   0.00000  -0.00000
   53 C4      .Y        0.01129   0.15657   0.02361  -0.13588  -0.00820
   54 C4      .Z        0.09668   0.04231  -0.02857  -0.01462  -0.27379
   55 C4      .S        5.97446  -2.69576   0.10106  -1.75386   2.78072
   56 C4      .X        0.00000  -0.00000   0.00000  -0.00000   0.00000
   57 C4      .Y       -0.81515   1.25526  -0.09192   0.74251  -0.77938
   58 C4      .Z        2.31845  -1.09434   0.17019  -0.77237   0.82447
   59 C4      .XX      -1.65819   0.01705  -0.01900   0.03148  -1.43176
   60 C4      .YY      -0.22751  -0.12908  -0.00425   0.13255  -1.64367
   61 C4      .ZZ       0.11698  -0.05177  -0.00045   0.03692  -2.08999
   62 C4      .XY       0.00000   0.00000   0.00000   0.00000  -0.00000
   63 C4      .XZ       0.00000   0.00000  -0.00000   0.00000  -0.00000
   64 C4      .YZ       0.34453  -0.02651  -0.00258   0.05362  -0.49165
   65 C5      .S        0.02467  -0.25565  -0.00996  -0.43286   0.01415
   66 C5      .S        0.25285   0.07083  -0.06594   2.68411   0.14506
   67 C5      .X        0.00000  -0.00000   0.00000  -0.00000   0.00000
   68 C5      .Y       -0.15657  -0.01129  -0.02361   0.00820   0.13588
   69 C5      .Z        0.04231   0.09668  -0.02857  -0.27379  -0.01462
   70 C5      .S       -2.69576   5.97446   0.10106   2.78072  -1.75386
   71 C5      .X       -0.00000   0.00000  -0.00000   0.00000  -0.00000
   72 C5      .Y       -1.25526   0.81515   0.09192   0.77938  -0.74251
   73 C5      .Z       -1.09434   2.31845   0.17019   0.82447  -0.77237
   74 C5      .XX       0.01705  -1.65819  -0.01900  -1.43176   0.03148
   75 C5      .YY      -0.12908  -0.22751  -0.00425  -1.64367   0.13255
   76 C5      .ZZ      -0.05177   0.11698  -0.00045  -2.08999   0.03692
   77 C5      .XY      -0.00000  -0.00000   0.00000   0.00000  -0.00000
   78 C5      .XZ      -0.00000  -0.00000  -0.00000  -0.00000  -0.00000
   79 C5      .YZ       0.02651  -0.34453   0.00258   0.49165  -0.05362
   80 H6      .S        0.01271   0.03821  -0.03797   0.01607  -0.03887
   81 H6      .S       -0.36164   0.08942  -0.06441   0.12530  -0.16298
   82 H7      .S        0.03821   0.01271  -0.03797  -0.03887   0.01607
   83 H7      .S        0.08942  -0.36164  -0.06441  -0.16298   0.12530
   84 H8      .S       -0.13693  -0.02155   0.01243  -0.02422   0.16651
   85 H8      .S        0.26097  -0.38616   0.10160  -0.30654  -0.00183
   86 H9      .S       -0.02155  -0.13693   0.01243   0.16651  -0.02422
   87 H9      .S       -0.38616   0.26097   0.10160  -0.00183  -0.30654
                          86        87
                           V         V    
     Eigenvalues --   114.85014 114.85014
    1 S1      .S        0.00076   0.00076
    2 S1      .S        0.00167   0.00167
    3 S1      .X       -0.00000   0.00000
    4 S1      .Y        0.00855  -0.00855
    5 S1      .Z        0.00734   0.00734
    6 S1      .S       -0.05298  -0.05298
    7 S1      .X        0.00000   0.00000
    8 S1      .Y        0.02751  -0.02751
    9 S1      .Z        0.04130   0.04130
   10 S1      .S       -0.79197  -0.79197
   11 S1      .X       -0.00000  -0.00000
   12 S1      .Y        0.12383  -0.12383
   13 S1      .Z        0.41078   0.41078
   14 S1      .XX       0.03638   0.03638
   15 S1      .YY       0.04561   0.04561
   16 S1      .ZZ       0.04793   0.04793
   17 S1      .XY      -0.00000  -0.00000
   18 S1      .XZ       0.00000   0.00000
   19 S1      .YZ       0.02310  -0.02310
   20 C2      .S       -0.00551  -0.49671
   21 C2      .S       -0.01954   2.89106
   22 C2      .X       -0.00000   0.00000
   23 C2      .Y        0.00365   0.05223
   24 C2      .Z        0.00053   0.06076
   25 C2      .S        0.23862   2.84048
   26 C2      .X        0.00000   0.00000
   27 C2      .Y       -0.04163  -0.51575
   28 C2      .Z        0.13113  -0.28533
   29 C2      .XX      -0.00848  -1.93270
   30 C2      .YY      -0.02608  -1.95775
   31 C2      .ZZ      -0.00854  -1.77714
   32 C2      .XY      -0.00000  -0.00000
   33 C2      .XZ      -0.00000   0.00000
   34 C2      .YZ      -0.00294  -0.11349
   35 C3      .S       -0.49671  -0.00551
   36 C3      .S        2.89106  -0.01954
   37 C3      .X       -0.00000   0.00000
   38 C3      .Y       -0.05223  -0.00365
   39 C3      .Z        0.06076   0.00053
   40 C3      .S        2.84048   0.23862
   41 C3      .X       -0.00000   0.00000
   42 C3      .Y        0.51575   0.04163
   43 C3      .Z       -0.28533   0.13113
   44 C3      .XX      -1.93270  -0.00848
   45 C3      .YY      -1.95775  -0.02608
   46 C3      .ZZ      -1.77714  -0.00854
   47 C3      .XY      -0.00000  -0.00000
   48 C3      .XZ       0.00000   0.00000
   49 C3      .YZ       0.11349   0.00294
   50 C4      .S        0.00317   0.00682
   51 C4      .S        0.02731   0.12662
   52 C4      .X        0.00000  -0.00000
   53 C4      .Y       -0.01298   0.04372
   54 C4      .Z       -0.01097   0.16694
   55 C4      .S        0.12801  -1.16628
   56 C4      .X       -0.00000   0.00000
   57 C4      .Y        0.05513  -0.14316
   58 C4      .Z        0.04594  -0.55647
   59 C4      .XX       0.00458   0.02081
   60 C4      .YY      -0.01589   0.03053
   61 C4      .ZZ      -0.01130   0.13554
   62 C4      .XY       0.00000   0.00000
   63 C4      .XZ       0.00000   0.00000
   64 C4      .YZ       0.01283   0.03786
   65 C5      .S        0.00682   0.00317
   66 C5      .S        0.12662   0.02731
   67 C5      .X        0.00000  -0.00000
   68 C5      .Y       -0.04372   0.01298
   69 C5      .Z        0.16694  -0.01097
   70 C5      .S       -1.16628   0.12801
   71 C5      .X        0.00000  -0.00000
   72 C5      .Y        0.14316  -0.05513
   73 C5      .Z       -0.55647   0.04594
   74 C5      .XX       0.02081   0.00458
   75 C5      .YY       0.03053  -0.01589
   76 C5      .ZZ       0.13554  -0.01130
   77 C5      .XY       0.00000   0.00000
   78 C5      .XZ      -0.00000   0.00000
   79 C5      .YZ      -0.03786  -0.01283
   80 H6      .S       -0.00611   0.21213
   81 H6      .S       -0.04481  -0.29624
   82 H7      .S        0.21213  -0.00611
   83 H7      .S       -0.29624  -0.04481
   84 H8      .S       -0.00111   0.01781
   85 H8      .S       -0.03788  -0.03568
   86 H9      .S        0.01781  -0.00111
   87 H9      .S       -0.03568  -0.03788
