 Entering Gaussian System

 Standard orientation:



 -------------------------------------------------------
     1  24    0     0.000000     0.000000     0.000000
     2   6    0     1.897809     0.000000     0.000000
     3   6    0     0.000000    -1.897809     0.000000
     4   6    0    -1.897809     0.000000     0.000000
     5   6    0     0.000000     1.897809     0.000000
     6   6    0     0.000000     0.000000     1.897809
     7   6    0     0.000000     0.000000    -1.897809
     8   8    0     3.034617     0.000000     0.000000
     9   8    0     0.000000    -3.034617     0.000000
    10   8    0    -3.034617     0.000000     0.000000
    11   8    0     0.000000     3.034617     0.000000
    12   8    0     0.000000     0.000000     3.034617
    13   8    0     0.000000     0.000000    -3.034617
 -------------------------------------------------------

 AO basis set (Overlap normalization):
 Atom Cr1     Shell     1 S    8
   2.5447780700e+05   2.4290477640e-04
   3.8131797050e+04   1.8843523610e-03
   8.6752930610e+03   9.8009584390e-03
   2.4550099850e+03   3.9825008650e-02
   7.9916217790e+02   1.2940543730e-01
   2.8690021490e+02   3.0629001810e-01
   1.1125413230e+02   4.3462834980e-01
   4.3864152640e+01   2.2469562870e-01
 Atom Cr1     Shell     2 S    4
   2.7932669170e+02  -2.4363357910e-02
   8.6274732380e+01  -1.1511495390e-01
   1.3555756110e+01   5.5092266280e-01
   5.6978112750e+00   5.3611354690e-01
 Atom Cr1     Shell     3 S    2
   8.5636582620e+00  -3.7123017690e-01
   1.3988296770e+00   1.1681169460e+00
 Atom Cr1     Shell     4 S    1
   5.7288171120e-01   1.0000000000e+00
 Atom Cr1     Shell     5 S    1
   9.0096171320e-02   1.0000000000e+00
 Atom Cr1     Shell     6 S    1
   3.4125885130e-02   1.0000000000e+00
 Atom Cr1     Shell     7 P    6
   1.3064398860e+03   2.8292800650e-03
   3.0925311440e+02   2.2776629200e-02
   9.8996273960e+01   1.0564561900e-01
   3.6756916450e+01   2.9949944920e-01
   1.4566657080e+01   4.7706245360e-01
   5.8739937430e+00   2.7654234380e-01
 Atom Cr1     Shell     8 P    3
   2.2890999700e+01  -1.9412106080e-02
   3.0855001820e+00   3.8618875820e-01
   1.2132329120e+00   6.7623908900e-01
 Atom Cr1     Shell     9 P    1
   4.4931680700e-01   1.0000000000e+00
 Atom Cr1     Shell    10 P    1
   1.2067500000e-01   1.0000000000e+00
 Atom Cr1     Shell    11 D    4
   4.3720074480e+01   2.2093259260e-02
   1.2391242650e+01   1.2801438770e-01
   4.2639442010e+00   3.8652910280e-01
   1.5525221790e+00   6.4103301440e-01
 Atom Cr1     Shell    12 D    1
   5.3761929490e-01   1.0000000000e+00
 Atom Cr1     Shell    13 D    1
   1.6493173070e-01   1.0000000000e+00
 Atom Cr1     Shell    14 D    1
   5.1000000000e-02   1.0000000000e+00
 Atom Cr1     Shell    15 F    1
   1.1470000000e+00   1.0000000000e+00
 Atom  C2     Shell    16 S    6
   1.3575349680e+04   6.0645503600e-04
   2.0352333680e+03   4.6979088880e-03
   4.6322562360e+02   2.4332477650e-02
   1.3120019600e+02   9.7399968310e-02
   4.2853015890e+01   3.0195584250e-01
   1.5584185770e+01   6.6233609140e-01
 Atom  C2     Shell    17 S    2
   6.2067138510e+00   6.5595308540e-01
   2.5764896530e+00   3.7585633290e-01
 Atom  C2     Shell    18 S    1
   5.7696339420e-01   1.0000000000e+00
 Atom  C2     Shell    19 S    1
   2.2972831360e-01   1.0000000000e+00
 Atom  C2     Shell    20 S    1
   9.5164440030e-02   1.0000000000e+00
 Atom  C2     Shell    21 P    4
   3.4697232240e+01   1.1327220000e-02
   7.9582622830e+00   7.6169659200e-02
   2.3780826880e+00   3.0192252200e-01
   8.1433208180e-01   7.2785027350e-01
 Atom  C2     Shell    22 P    1
   2.8887547250e-01   1.0000000000e+00
 Atom  C2     Shell    23 P    1
   1.0056823670e-01   1.0000000000e+00
 Atom  C2     Shell    24 D    1
   1.0970000000e+00   1.0000000000e+00
 Atom  C2     Shell    25 D    1
   3.1800000000e-01   1.0000000000e+00
 Atom  C2     Shell    26 F    1
   7.6100000000e-01   1.0000000000e+00
 Atom  C3     Shell    27 S    6
   1.3575349680e+04   6.0645503600e-04
   2.0352333680e+03   4.6979088880e-03
   4.6322562360e+02   2.4332477650e-02
   1.3120019600e+02   9.7399968310e-02
   4.2853015890e+01   3.0195584250e-01
   1.5584185770e+01   6.6233609140e-01
 Atom  C3     Shell    28 S    2
   6.2067138510e+00   6.5595308540e-01
   2.5764896530e+00   3.7585633290e-01
 Atom  C3     Shell    29 S    1
   5.7696339420e-01   1.0000000000e+00
 Atom  C3     Shell    30 S    1
   2.2972831360e-01   1.0000000000e+00
 Atom  C3     Shell    31 S    1
   9.5164440030e-02   1.0000000000e+00
 Atom  C3     Shell    32 P    4
   3.4697232240e+01   1.1327220000e-02
   7.9582622830e+00   7.6169659200e-02
   2.3780826880e+00   3.0192252200e-01
   8.1433208180e-01   7.2785027350e-01
 Atom  C3     Shell    33 P    1
   2.8887547250e-01   1.0000000000e+00
 Atom  C3     Shell    34 P    1
   1.0056823670e-01   1.0000000000e+00
 Atom  C3     Shell    35 D    1
   1.0970000000e+00   1.0000000000e+00
 Atom  C3     Shell    36 D    1
   3.1800000000e-01   1.0000000000e+00
 Atom  C3     Shell    37 F    1
   7.6100000000e-01   1.0000000000e+00
 Atom  C4     Shell    38 S    6
   1.3575349680e+04   6.0645503600e-04
   2.0352333680e+03   4.6979088880e-03
   4.6322562360e+02   2.4332477650e-02
   1.3120019600e+02   9.7399968310e-02
   4.2853015890e+01   3.0195584250e-01
   1.5584185770e+01   6.6233609140e-01
 Atom  C4     Shell    39 S    2
   6.2067138510e+00   6.5595308540e-01
   2.5764896530e+00   3.7585633290e-01
 Atom  C4     Shell    40 S    1
   5.7696339420e-01   1.0000000000e+00
 Atom  C4     Shell    41 S    1
   2.2972831360e-01   1.0000000000e+00
 Atom  C4     Shell    42 S    1
   9.5164440030e-02   1.0000000000e+00
 Atom  C4     Shell    43 P    4
   3.4697232240e+01   1.1327220000e-02
   7.9582622830e+00   7.6169659200e-02
   2.3780826880e+00   3.0192252200e-01
   8.1433208180e-01   7.2785027350e-01
 Atom  C4     Shell    44 P    1
   2.8887547250e-01   1.0000000000e+00
 Atom  C4     Shell    45 P    1
   1.0056823670e-01   1.0000000000e+00
 Atom  C4     Shell    46 D    1
   1.0970000000e+00   1.0000000000e+00
 Atom  C4     Shell    47 D    1
   3.1800000000e-01   1.0000000000e+00
 Atom  C4     Shell    48 F    1
   7.6100000000e-01   1.0000000000e+00
 Atom  C5     Shell    49 S    6
   1.3575349680e+04   6.0645503600e-04
   2.0352333680e+03   4.6979088880e-03
   4.6322562360e+02   2.4332477650e-02
   1.3120019600e+02   9.7399968310e-02
   4.2853015890e+01   3.0195584250e-01
   1.5584185770e+01   6.6233609140e-01
 Atom  C5     Shell    50 S    2
   6.2067138510e+00   6.5595308540e-01
   2.5764896530e+00   3.7585633290e-01
 Atom  C5     Shell    51 S    1
   5.7696339420e-01   1.0000000000e+00
 Atom  C5     Shell    52 S    1
   2.2972831360e-01   1.0000000000e+00
 Atom  C5     Shell    53 S    1
   9.5164440030e-02   1.0000000000e+00
 Atom  C5     Shell    54 P    4
   3.4697232240e+01   1.1327220000e-02
   7.9582622830e+00   7.6169659200e-02
   2.3780826880e+00   3.0192252200e-01
   8.1433208180e-01   7.2785027350e-01
 Atom  C5     Shell    55 P    1
   2.8887547250e-01   1.0000000000e+00
 Atom  C5     Shell    56 P    1
   1.0056823670e-01   1.0000000000e+00
 Atom  C5     Shell    57 D    1
   1.0970000000e+00   1.0000000000e+00
 Atom  C5     Shell    58 D    1
   3.1800000000e-01   1.0000000000e+00
 Atom  C5     Shell    59 F    1
   7.6100000000e-01   1.0000000000e+00
 Atom  C6     Shell    60 S    6
   1.3575349680e+04   6.0645503600e-04
   2.0352333680e+03   4.6979088880e-03
   4.6322562360e+02   2.4332477650e-02
   1.3120019600e+02   9.7399968310e-02
   4.2853015890e+01   3.0195584250e-01
   1.5584185770e+01   6.6233609140e-01
 Atom  C6     Shell    61 S    2
   6.2067138510e+00   6.5595308540e-01
   2.5764896530e+00   3.7585633290e-01
 Atom  C6     Shell    62 S    1
   5.7696339420e-01   1.0000000000e+00
 Atom  C6     Shell    63 S    1
   2.2972831360e-01   1.0000000000e+00
 Atom  C6     Shell    64 S    1
   9.5164440030e-02   1.0000000000e+00
 Atom  C6     Shell    65 P    4
   3.4697232240e+01   1.1327220000e-02
   7.9582622830e+00   7.6169659200e-02
   2.3780826880e+00   3.0192252200e-01
   8.1433208180e-01   7.2785027350e-01
 Atom  C6     Shell    66 P    1
   2.8887547250e-01   1.0000000000e+00
 Atom  C6     Shell    67 P    1
   1.0056823670e-01   1.0000000000e+00
 Atom  C6     Shell    68 D    1
   1.0970000000e+00   1.0000000000e+00
 Atom  C6     Shell    69 D    1
   3.1800000000e-01   1.0000000000e+00
 Atom  C6     Shell    70 F    1
   7.6100000000e-01   1.0000000000e+00
 Atom  C7     Shell    71 S    6
   1.3575349680e+04   6.0645503600e-04
   2.0352333680e+03   4.6979088880e-03
   4.6322562360e+02   2.4332477650e-02
   1.3120019600e+02   9.7399968310e-02
   4.2853015890e+01   3.0195584250e-01
   1.5584185770e+01   6.6233609140e-01
 Atom  C7     Shell    72 S    2
   6.2067138510e+00   6.5595308540e-01
   2.5764896530e+00   3.7585633290e-01
 Atom  C7     Shell    73 S    1
   5.7696339420e-01   1.0000000000e+00
 Atom  C7     Shell    74 S    1
   2.2972831360e-01   1.0000000000e+00
 Atom  C7     Shell    75 S    1
   9.5164440030e-02   1.0000000000e+00
 Atom  C7     Shell    76 P    4
   3.4697232240e+01   1.1327220000e-02
   7.9582622830e+00   7.6169659200e-02
   2.3780826880e+00   3.0192252200e-01
   8.1433208180e-01   7.2785027350e-01
 Atom  C7     Shell    77 P    1
   2.8887547250e-01   1.0000000000e+00
 Atom  C7     Shell    78 P    1
   1.0056823670e-01   1.0000000000e+00
 Atom  C7     Shell    79 D    1
   1.0970000000e+00   1.0000000000e+00
 Atom  C7     Shell    80 D    1
   3.1800000000e-01   1.0000000000e+00
 Atom  C7     Shell    81 F    1
   7.6100000000e-01   1.0000000000e+00
 Atom  O8     Shell    82 S    6
   2.7032382630e+04   5.7227335210e-04
   4.0523871390e+03   4.4353233490e-03
   9.2232722710e+02   2.3020107710e-02
   2.6124070990e+02   9.2822490670e-02
   8.5354641350e+01   2.9378500010e-01
   3.1035035240e+01   6.7401604500e-01
 Atom  O8     Shell    83 S    2
   1.2260860730e+01   6.3839937030e-01
   4.9987076010e+00   3.9534587130e-01
 Atom  O8     Shell    84 S    1
   1.1703108160e+00   1.0000000000e+00
 Atom  O8     Shell    85 S    1
   4.6474740990e-01   1.0000000000e+00
 Atom  O8     Shell    86 S    1
   1.8504536360e-01   1.0000000000e+00
 Atom  O8     Shell    87 P    4
   6.3274954800e+01   1.2018332220e-02
   1.4627049380e+01   8.3005421790e-02
   4.4501223460e+00   3.1991743930e-01
   1.5275799650e+00   7.0715542920e-01
 Atom  O8     Shell    88 P    1
   5.2935117940e-01   1.0000000000e+00
 Atom  O8     Shell    89 P    1
   1.7478421270e-01   1.0000000000e+00
 Atom  O8     Shell    90 D    1
   2.3140000000e+00   1.0000000000e+00
 Atom  O8     Shell    91 D    1
   6.4500000000e-01   1.0000000000e+00
 Atom  O8     Shell    92 F    1
   1.4280000000e+00   1.0000000000e+00
 Atom  O9     Shell    93 S    6
   2.7032382630e+04   5.7227335210e-04
   4.0523871390e+03   4.4353233490e-03
   9.2232722710e+02   2.3020107710e-02
   2.6124070990e+02   9.2822490670e-02
   8.5354641350e+01   2.9378500010e-01
   3.1035035240e+01   6.7401604500e-01
 Atom  O9     Shell    94 S    2
   1.2260860730e+01   6.3839937030e-01
   4.9987076010e+00   3.9534587130e-01
 Atom  O9     Shell    95 S    1
   1.1703108160e+00   1.0000000000e+00
 Atom  O9     Shell    96 S    1
   4.6474740990e-01   1.0000000000e+00
 Atom  O9     Shell    97 S    1
   1.8504536360e-01   1.0000000000e+00
 Atom  O9     Shell    98 P    4
   6.3274954800e+01   1.2018332220e-02
   1.4627049380e+01   8.3005421790e-02
   4.4501223460e+00   3.1991743930e-01
   1.5275799650e+00   7.0715542920e-01
 Atom  O9     Shell    99 P    1
   5.2935117940e-01   1.0000000000e+00
 Atom  O9     Shell   100 P    1
   1.7478421270e-01   1.0000000000e+00
 Atom  O9     Shell   101 D    1
   2.3140000000e+00   1.0000000000e+00
 Atom  O9     Shell   102 D    1
   6.4500000000e-01   1.0000000000e+00
 Atom  O9     Shell   103 F    1
   1.4280000000e+00   1.0000000000e+00
 Atom  O10    Shell   104 S    6
   2.7032382630e+04   5.7227335210e-04
   4.0523871390e+03   4.4353233490e-03
   9.2232722710e+02   2.3020107710e-02
   2.6124070990e+02   9.2822490670e-02
   8.5354641350e+01   2.9378500010e-01
   3.1035035240e+01   6.7401604500e-01
 Atom  O10    Shell   105 S    2
   1.2260860730e+01   6.3839937030e-01
   4.9987076010e+00   3.9534587130e-01
 Atom  O10    Shell   106 S    1
   1.1703108160e+00   1.0000000000e+00
 Atom  O10    Shell   107 S    1
   4.6474740990e-01   1.0000000000e+00
 Atom  O10    Shell   108 S    1
   1.8504536360e-01   1.0000000000e+00
 Atom  O10    Shell   109 P    4
   6.3274954800e+01   1.2018332220e-02
   1.4627049380e+01   8.3005421790e-02
   4.4501223460e+00   3.1991743930e-01
   1.5275799650e+00   7.0715542920e-01
 Atom  O10    Shell   110 P    1
   5.2935117940e-01   1.0000000000e+00
 Atom  O10    Shell   111 P    1
   1.7478421270e-01   1.0000000000e+00
 Atom  O10    Shell   112 D    1
   2.3140000000e+00   1.0000000000e+00
 Atom  O10    Shell   113 D    1
   6.4500000000e-01   1.0000000000e+00
 Atom  O10    Shell   114 F    1
   1.4280000000e+00   1.0000000000e+00
 Atom  O11    Shell   115 S    6
   2.7032382630e+04   5.7227335210e-04
   4.0523871390e+03   4.4353233490e-03
   9.2232722710e+02   2.3020107710e-02
   2.6124070990e+02   9.2822490670e-02
   8.5354641350e+01   2.9378500010e-01
   3.1035035240e+01   6.7401604500e-01
 Atom  O11    Shell   116 S    2
   1.2260860730e+01   6.3839937030e-01
   4.9987076010e+00   3.9534587130e-01
 Atom  O11    Shell   117 S    1
   1.1703108160e+00   1.0000000000e+00
 Atom  O11    Shell   118 S    1
   4.6474740990e-01   1.0000000000e+00
 Atom  O11    Shell   119 S    1
   1.8504536360e-01   1.0000000000e+00
 Atom  O11    Shell   120 P    4
   6.3274954800e+01   1.2018332220e-02
   1.4627049380e+01   8.3005421790e-02
   4.4501223460e+00   3.1991743930e-01
   1.5275799650e+00   7.0715542920e-01
 Atom  O11    Shell   121 P    1
   5.2935117940e-01   1.0000000000e+00
 Atom  O11    Shell   122 P    1
   1.7478421270e-01   1.0000000000e+00
 Atom  O11    Shell   123 D    1
   2.3140000000e+00   1.0000000000e+00
 Atom  O11    Shell   124 D    1
   6.4500000000e-01   1.0000000000e+00
 Atom  O11    Shell   125 F    1
   1.4280000000e+00   1.0000000000e+00
 Atom  O12    Shell   126 S    6
   2.7032382630e+04   5.7227335210e-04
   4.0523871390e+03   4.4353233490e-03
   9.2232722710e+02   2.3020107710e-02
   2.6124070990e+02   9.2822490670e-02
   8.5354641350e+01   2.9378500010e-01
   3.1035035240e+01   6.7401604500e-01
 Atom  O12    Shell   127 S    2
   1.2260860730e+01   6.3839937030e-01
   4.9987076010e+00   3.9534587130e-01
 Atom  O12    Shell   128 S    1
   1.1703108160e+00   1.0000000000e+00
 Atom  O12    Shell   129 S    1
   4.6474740990e-01   1.0000000000e+00
 Atom  O12    Shell   130 S    1
   1.8504536360e-01   1.0000000000e+00
 Atom  O12    Shell   131 P    4
   6.3274954800e+01   1.2018332220e-02
   1.4627049380e+01   8.3005421790e-02
   4.4501223460e+00   3.1991743930e-01
   1.5275799650e+00   7.0715542920e-01
 Atom  O12    Shell   132 P    1
   5.2935117940e-01   1.0000000000e+00
 Atom  O12    Shell   133 P    1
   1.7478421270e-01   1.0000000000e+00
 Atom  O12    Shell   134 D    1
   2.3140000000e+00   1.0000000000e+00
 Atom  O12    Shell   135 D    1
   6.4500000000e-01   1.0000000000e+00
 Atom  O12    Shell   136 F    1
   1.4280000000e+00   1.0000000000e+00
 Atom  O13    Shell   137 S    6
   2.7032382630e+04   5.7227335210e-04
   4.0523871390e+03   4.4353233490e-03
   9.2232722710e+02   2.3020107710e-02
   2.6124070990e+02   9.2822490670e-02
   8.5354641350e+01   2.9378500010e-01
   3.1035035240e+01   6.7401604500e-01
 Atom  O13    Shell   138 S    2
   1.2260860730e+01   6.3839937030e-01
   4.9987076010e+00   3.9534587130e-01
 Atom  O13    Shell   139 S    1
   1.1703108160e+00   1.0000000000e+00
 Atom  O13    Shell   140 S    1
   4.6474740990e-01   1.0000000000e+00
 Atom  O13    Shell   141 S    1
   1.8504536360e-01   1.0000000000e+00
 Atom  O13    Shell   142 P    4
   6.3274954800e+01   1.2018332220e-02
   1.4627049380e+01   8.3005421790e-02
   4.4501223460e+00   3.1991743930e-01
   1.5275799650e+00   7.0715542920e-01
 Atom  O13    Shell   143 P    1
   5.2935117940e-01   1.0000000000e+00
 Atom  O13    Shell   144 P    1
   1.7478421270e-01   1.0000000000e+00
 Atom  O13    Shell   145 D    1
   2.3140000000e+00   1.0000000000e+00
 Atom  O13    Shell   146 D    1
   6.4500000000e-01   1.0000000000e+00
 Atom  O13    Shell   147 F    1
   1.4280000000e+00   1.0000000000e+00

  Molecular Orbital Coefficients:
                           1         2         3         4         5
                           O         O         O         O         O    
     Eigenvalues --   -32.39815 -32.36751 -32.36751 -32.36751 -32.35578
    1 Cr1     .S       -0.00131  -0.00000   0.00000  -0.00000   0.00000
    2 Cr1     .S        0.00416   0.00000  -0.00000   0.00000  -0.00000
    3 Cr1     .S       -0.01032  -0.00000   0.00000  -0.00000   0.00000
    4 Cr1     .S       -0.00611  -0.00000   0.00000   0.00000   0.00000
    5 Cr1     .S        0.00638  -0.00000   0.00000  -0.00000   0.00000
    6 Cr1     .S        0.00195   0.00000  -0.00000   0.00000  -0.00000
    7 Cr1     .X       -0.00000  -0.00003  -0.00150   0.00463  -0.00000
    8 Cr1     .Y        0.00000  -0.00482  -0.00061  -0.00023  -0.00000
    9 Cr1     .Z        0.00000  -0.00065   0.00459   0.00149   0.00000
   10 Cr1     .X        0.00000   0.00009   0.00407  -0.01252   0.00000
   11 Cr1     .Y       -0.00000   0.01305   0.00165   0.00063   0.00000
   12 Cr1     .Z       -0.00000   0.00177  -0.01241  -0.00402  -0.00000
   13 Cr1     .X        0.00000  -0.00000  -0.00011   0.00035  -0.00000
   14 Cr1     .Y       -0.00000  -0.00036  -0.00005  -0.00002  -0.00000
   15 Cr1     .Z        0.00000  -0.00005   0.00035   0.00011   0.00000
   16 Cr1     .X        0.00000   0.00007   0.00342  -0.01052   0.00000
   17 Cr1     .Y       -0.00000   0.01096   0.00139   0.00053   0.00000
   18 Cr1     .Z       -0.00000   0.00148  -0.01043  -0.00338  -0.00000
   19 Cr1     .XX      -0.00000   0.00000   0.00000  -0.00000  -0.00099
   20 Cr1     .YY       0.00000  -0.00000  -0.00000   0.00000   0.00193
   21 Cr1     .ZZ      -0.00000   0.00000   0.00000   0.00000  -0.00094
   22 Cr1     .XY      -0.00000   0.00000   0.00000  -0.00000   0.00000
   23 Cr1     .XZ      -0.00000   0.00000  -0.00000  -0.00000  -0.00000
   24 Cr1     .YZ      -0.00000   0.00000   0.00000   0.00000   0.00000
   25 Cr1     .XX      -0.00000   0.00000  -0.00000  -0.00000  -0.00300
   26 Cr1     .YY       0.00000  -0.00000  -0.00000   0.00000   0.00584
   27 Cr1     .ZZ      -0.00000   0.00000   0.00000   0.00000  -0.00284
   28 Cr1     .XY       0.00000  -0.00000  -0.00000   0.00000   0.00000
   29 Cr1     .XZ      -0.00000  -0.00000  -0.00000  -0.00000  -0.00000
   30 Cr1     .YZ      -0.00000  -0.00000  -0.00000   0.00000  -0.00000
   31 Cr1     .XX       0.00000  -0.00000   0.00000   0.00000   0.00220
   32 Cr1     .YY       0.00000   0.00000   0.00000   0.00000  -0.00428
   33 Cr1     .ZZ      -0.00000  -0.00000  -0.00000  -0.00000   0.00208
   34 Cr1     .XY      -0.00000   0.00000   0.00000  -0.00000  -0.00000
   35 Cr1     .XZ       0.00000   0.00000   0.00000   0.00000   0.00000
   36 Cr1     .YZ       0.00000   0.00000   0.00000   0.00000   0.00000
   37 Cr1     .XX       0.00000   0.00000  -0.00000   0.00000  -0.00034
   38 Cr1     .YY      -0.00000  -0.00000  -0.00000  -0.00000   0.00066
   39 Cr1     .ZZ      -0.00000   0.00000   0.00000  -0.00000  -0.00032
   40 Cr1     .XY      -0.00000   0.00000   0.00000   0.00000  -0.00000
   41 Cr1     .XZ       0.00000   0.00000   0.00000   0.00000  -0.00000
   42 Cr1     .YZ       0.00000   0.00000   0.00000  -0.00000   0.00000
   43 Cr1     .XXX     -0.00000  -0.00000  -0.00006   0.00018  -0.00000
   44 Cr1     .YYY     -0.00000   0.00077   0.00010   0.00004   0.00000
   45 Cr1     .ZZZ      0.00000  -0.00010   0.00073   0.00024   0.00000
   46 Cr1     .XYY     -0.00000  -0.00000  -0.00016   0.00049  -0.00000
   47 Cr1     .XXY     -0.00000   0.00077   0.00010   0.00004   0.00000
   48 Cr1     .XXZ      0.00000  -0.00007   0.00049   0.00016   0.00000
   49 Cr1     .XZZ      0.00000   0.00000   0.00016  -0.00049   0.00000
   50 Cr1     .YZZ     -0.00000   0.00051   0.00007   0.00002   0.00000
   51 Cr1     .YYZ      0.00000  -0.00007   0.00049   0.00016   0.00000
   52 Cr1     .XYZ     -0.00000  -0.00000   0.00000  -0.00000   0.00000
   53 C2      .S       -0.02334   0.00026   0.01234  -0.03797   0.01670
   54 C2      .S       -0.04905   0.00056   0.02595  -0.07986   0.03516
   55 C2      .S        0.07769  -0.00088  -0.04116   0.12669  -0.05618
   56 C2      .S        0.04889  -0.00056  -0.02625   0.08078  -0.03574
   57 C2      .S        0.00201  -0.00008  -0.00365   0.01124  -0.00247
   58 C2      .X        0.06662  -0.00078  -0.03617   0.11130  -0.04909
   59 C2      .Y        0.00000  -0.00038  -0.00005  -0.00002  -0.00000
   60 C2      .Z        0.00000  -0.00005   0.00036   0.00012   0.00000
   61 C2      .X        0.02550  -0.00030  -0.01381   0.04250  -0.01925
   62 C2      .Y        0.00000  -0.00108  -0.00014  -0.00005  -0.00000
   63 C2      .Z        0.00000  -0.00015   0.00103   0.00033   0.00000
   64 C2      .X        0.00043   0.00002   0.00103  -0.00318   0.00007
   65 C2      .Y        0.00000   0.00019   0.00002   0.00001   0.00000
   66 C2      .Z        0.00000   0.00003  -0.00018  -0.00006  -0.00000
   67 C2      .XX       0.01084  -0.00013  -0.00584   0.01797  -0.00804
   68 C2      .YY      -0.00542   0.00006   0.00292  -0.00899   0.00399
   69 C2      .ZZ      -0.00542   0.00006   0.00292  -0.00899   0.00405
   70 C2      .XY      -0.00000   0.00004   0.00001   0.00000   0.00000
   71 C2      .XZ       0.00000  -0.00001   0.00004   0.00001   0.00000
   72 C2      .YZ       0.00000   0.00000   0.00000   0.00000   0.00000
   73 C2      .XX       0.00562  -0.00007  -0.00309   0.00952  -0.00390
   74 C2      .YY      -0.00281   0.00003   0.00155  -0.00476   0.00250
   75 C2      .ZZ      -0.00281   0.00003   0.00155  -0.00476   0.00139
   76 C2      .XY       0.00000  -0.00084  -0.00011  -0.00004  -0.00000
   77 C2      .XZ      -0.00000   0.00011  -0.00080  -0.00026  -0.00000
   78 C2      .YZ      -0.00000  -0.00000  -0.00000  -0.00000  -0.00000
   79 C2      .XXX      0.00093  -0.00001  -0.00051   0.00157  -0.00052
   80 C2      .YYY     -0.00000   0.00005   0.00001   0.00000   0.00000
   81 C2      .ZZZ      0.00000  -0.00001   0.00004   0.00001   0.00000
   82 C2      .XYY      0.00251  -0.00003  -0.00137   0.00421  -0.00175
   83 C2      .XXY     -0.00000   0.00003   0.00000   0.00000   0.00000
   84 C2      .XXZ      0.00000  -0.00001   0.00006   0.00002   0.00000
   85 C2      .XZZ     -0.00251   0.00003   0.00137  -0.00421   0.00211
   86 C2      .YZZ     -0.00000   0.00006   0.00001   0.00000   0.00000
   87 C2      .YYZ      0.00000  -0.00001   0.00006   0.00002   0.00000
   88 C2      .XYZ     -0.00000   0.00000  -0.00000  -0.00000   0.00000
   89 C3      .S       -0.02334  -0.03957  -0.00501  -0.00190  -0.03253
   90 C3      .S       -0.04905  -0.08321  -0.01054  -0.00401  -0.06849
   91 C3      .S        0.07769   0.13200   0.01673   0.00635   0.10942
   92 C3      .S        0.04889   0.08417   0.01066   0.00405   0.06961
   93 C3      .S        0.00201   0.01171   0.00148   0.00056   0.00481
   94 C3      .X       -0.00000  -0.00000  -0.00012   0.00037  -0.00000
   95 C3      .Y       -0.06662  -0.11597  -0.01469  -0.00558  -0.09561
   96 C3      .Z        0.00000  -0.00005   0.00036   0.00012   0.00000
   97 C3      .X       -0.00000  -0.00001  -0.00034   0.00104  -0.00000
   98 C3      .Y       -0.02550  -0.04428  -0.00561  -0.00213  -0.03750
   99 C3      .Z        0.00000  -0.00015   0.00103   0.00033   0.00000
  100 C3      .X        0.00000   0.00000   0.00006  -0.00018  -0.00000
  101 C3      .Y       -0.00043   0.00332   0.00042   0.00016   0.00014
  102 C3      .Z        0.00000   0.00003  -0.00018  -0.00006  -0.00000
  103 C3      .XX      -0.00542  -0.00936  -0.00119  -0.00045  -0.00783
  104 C3      .YY       0.01084   0.01873   0.00237   0.00090   0.01567
  105 C3      .ZZ      -0.00542  -0.00936  -0.00119  -0.00045  -0.00784
  106 C3      .XY      -0.00000  -0.00000  -0.00001   0.00004  -0.00000
  107 C3      .XZ       0.00000   0.00000   0.00000   0.00000   0.00000
  108 C3      .YZ      -0.00000   0.00001  -0.00004  -0.00001  -0.00000
  109 C3      .XX      -0.00281  -0.00496  -0.00063  -0.00024  -0.00381
  110 C3      .YY       0.00562   0.00992   0.00126   0.00048   0.00759
  111 C3      .ZZ      -0.00281  -0.00496  -0.00063  -0.00024  -0.00379
  112 C3      .XY       0.00000   0.00001   0.00026  -0.00080   0.00000
  113 C3      .XZ      -0.00000  -0.00000  -0.00000  -0.00000  -0.00000
  114 C3      .YZ       0.00000  -0.00011   0.00080   0.00026   0.00000
  115 C3      .XXX      0.00000   0.00000   0.00001  -0.00002   0.00000
  116 C3      .YYY      0.00374   0.00653   0.00083   0.00031   0.00560
  117 C3      .ZZZ      0.00000  -0.00001   0.00004   0.00001   0.00000
  118 C3      .XYY     -0.00000  -0.00000  -0.00000   0.00000  -0.00000
  119 C3      .XXY      0.00376   0.00657   0.00083   0.00032   0.00564
  120 C3      .XXZ     -0.00000  -0.00000   0.00000   0.00000  -0.00000
  121 C3      .XZZ      0.00000   0.00000   0.00002  -0.00006   0.00000
  122 C3      .YZZ      0.00251   0.00438   0.00056   0.00021   0.00376
  123 C3      .YYZ     -0.00000  -0.00000   0.00000   0.00000  -0.00000
  124 C3      .XYZ     -0.00000  -0.00000  -0.00000   0.00000   0.00000
  125 C4      .S       -0.02334  -0.00026  -0.01234   0.03797   0.01670
  126 C4      .S       -0.04905  -0.00056  -0.02595   0.07986   0.03516
  127 C4      .S        0.07769   0.00088   0.04116  -0.12669  -0.05618
  128 C4      .S        0.04889   0.00056   0.02625  -0.08078  -0.03574
  129 C4      .S        0.00201   0.00008   0.00365  -0.01124  -0.00247
  130 C4      .X       -0.06662  -0.00078  -0.03617   0.11130   0.04909
  131 C4      .Y        0.00000  -0.00038  -0.00005  -0.00002  -0.00000
  132 C4      .Z        0.00000  -0.00005   0.00036   0.00012   0.00000
  133 C4      .X       -0.02550  -0.00030  -0.01381   0.04250   0.01925
  134 C4      .Y        0.00000  -0.00108  -0.00014  -0.00005  -0.00000
  135 C4      .Z        0.00000  -0.00015   0.00103   0.00033   0.00000
  136 C4      .X       -0.00043   0.00002   0.00103  -0.00318  -0.00007
  137 C4      .Y        0.00000   0.00019   0.00002   0.00001   0.00000
  138 C4      .Z        0.00000   0.00003  -0.00018  -0.00006  -0.00000
  139 C4      .XX       0.01084   0.00013   0.00584  -0.01797  -0.00804
  140 C4      .YY      -0.00542  -0.00006  -0.00292   0.00899   0.00399
  141 C4      .ZZ      -0.00542  -0.00006  -0.00292   0.00899   0.00405
  142 C4      .XY       0.00000  -0.00004  -0.00001  -0.00000  -0.00000
  143 C4      .XZ      -0.00000   0.00001  -0.00004  -0.00001  -0.00000
  144 C4      .YZ       0.00000   0.00000  -0.00000  -0.00000   0.00000
  145 C4      .XX       0.00562   0.00007   0.00309  -0.00952  -0.00390
  146 C4      .YY      -0.00281  -0.00003  -0.00155   0.00476   0.00250
  147 C4      .ZZ      -0.00281  -0.00003  -0.00155   0.00476   0.00139
  148 C4      .XY      -0.00000   0.00084   0.00011   0.00004   0.00000
  149 C4      .XZ       0.00000  -0.00011   0.00080   0.00026   0.00000
  150 C4      .YZ      -0.00000  -0.00000  -0.00000   0.00000  -0.00000
  151 C4      .XXX     -0.00093  -0.00001  -0.00051   0.00157   0.00052
  152 C4      .YYY     -0.00000   0.00005   0.00001   0.00000   0.00000
  153 C4      .ZZZ      0.00000  -0.00001   0.00004   0.00001   0.00000
  154 C4      .XYY     -0.00251  -0.00003  -0.00137   0.00421   0.00175
  155 C4      .XXY     -0.00000   0.00003   0.00000   0.00000   0.00000
  156 C4      .XXZ      0.00000  -0.00001   0.00006   0.00002   0.00000
  157 C4      .XZZ      0.00251   0.00003   0.00137  -0.00421  -0.00211
  158 C4      .YZZ     -0.00000   0.00006   0.00001   0.00000   0.00000
  159 C4      .YYZ      0.00000  -0.00001   0.00006   0.00002   0.00000
  160 C4      .XYZ     -0.00000  -0.00000  -0.00000  -0.00000  -0.00000
  161 C5      .S       -0.02334   0.03957   0.00501   0.00190  -0.03253
  162 C5      .S       -0.04905   0.08321   0.01054   0.00401  -0.06849
  163 C5      .S        0.07769  -0.13200  -0.01673  -0.00635   0.10942
  164 C5      .S        0.04889  -0.08417  -0.01066  -0.00405   0.06961
  165 C5      .S        0.00201  -0.01171  -0.00148  -0.00056   0.00481
  166 C5      .X       -0.00000  -0.00000  -0.00012   0.00037  -0.00000
  167 C5      .Y        0.06662  -0.11597  -0.01469  -0.00558   0.09561
  168 C5      .Z        0.00000  -0.00005   0.00036   0.00012   0.00000
  169 C5      .X       -0.00000  -0.00001  -0.00034   0.00104  -0.00000
  170 C5      .Y        0.02550  -0.04428  -0.00561  -0.00213   0.03750
  171 C5      .Z        0.00000  -0.00015   0.00103   0.00033   0.00000
  172 C5      .X        0.00000   0.00000   0.00006  -0.00018  -0.00000
  173 C5      .Y        0.00043   0.00332   0.00042   0.00016  -0.00014
  174 C5      .Z        0.00000   0.00003  -0.00018  -0.00006  -0.00000
  175 C5      .XX      -0.00542   0.00936   0.00119   0.00045  -0.00783
  176 C5      .YY       0.01084  -0.01873  -0.00237  -0.00090   0.01567
  177 C5      .ZZ      -0.00542   0.00936   0.00119   0.00045  -0.00784
  178 C5      .XY       0.00000   0.00000   0.00001  -0.00004   0.00000
  179 C5      .XZ       0.00000   0.00000  -0.00000  -0.00000   0.00000
  180 C5      .YZ       0.00000  -0.00001   0.00004   0.00001   0.00000
  181 C5      .XX      -0.00281   0.00496   0.00063   0.00024  -0.00381
  182 C5      .YY       0.00562  -0.00992  -0.00126  -0.00048   0.00759
  183 C5      .ZZ      -0.00281   0.00496   0.00063   0.00024  -0.00379
  184 C5      .XY      -0.00000  -0.00001  -0.00026   0.00080  -0.00000
  185 C5      .XZ      -0.00000  -0.00000  -0.00000   0.00000  -0.00000
  186 C5      .YZ      -0.00000   0.00011  -0.00080  -0.00026  -0.00000
  187 C5      .XXX     -0.00000   0.00000   0.00001  -0.00002   0.00000
  188 C5      .YYY     -0.00374   0.00653   0.00083   0.00031  -0.00560
  189 C5      .ZZZ      0.00000  -0.00001   0.00004   0.00001   0.00000
  190 C5      .XYY     -0.00000  -0.00000  -0.00000   0.00000  -0.00000
  191 C5      .XXY     -0.00376   0.00657   0.00083   0.00032  -0.00564
  192 C5      .XXZ      0.00000  -0.00000   0.00000   0.00000  -0.00000
  193 C5      .XZZ      0.00000   0.00000   0.00002  -0.00006   0.00000
  194 C5      .YZZ     -0.00251   0.00438   0.00056   0.00021  -0.00376
  195 C5      .YYZ      0.00000  -0.00000   0.00000   0.00000  -0.00000
  196 C5      .XYZ      0.00000   0.00000   0.00000   0.00000   0.00000
  197 C6      .S       -0.02334   0.00536  -0.03764  -0.01219   0.01583
  198 C6      .S       -0.04905   0.01126  -0.07916  -0.02564   0.03332
  199 C6      .S        0.07769  -0.01787   0.12558   0.04068  -0.05324
  200 C6      .S        0.04889  -0.01139   0.08007   0.02594  -0.03387
  201 C6      .S        0.00201  -0.00159   0.01114   0.00361  -0.00234
  202 C6      .X       -0.00000  -0.00000  -0.00012   0.00037  -0.00000
  203 C6      .Y        0.00000  -0.00038  -0.00005  -0.00002  -0.00000
  204 C6      .Z        0.06662  -0.01570   0.11033   0.03574  -0.04652
  205 C6      .X       -0.00000  -0.00001  -0.00034   0.00104  -0.00000
  206 C6      .Y        0.00000  -0.00108  -0.00014  -0.00005  -0.00000
  207 C6      .Z        0.02550  -0.00600   0.04213   0.01365  -0.01825
  208 C6      .X        0.00000   0.00000   0.00006  -0.00018   0.00000
  209 C6      .Y       -0.00000   0.00019   0.00002   0.00001   0.00000
  210 C6      .Z        0.00043   0.00045  -0.00316  -0.00102   0.00007
  211 C6      .XX      -0.00542   0.00127  -0.00891  -0.00289   0.00384
  212 C6      .YY      -0.00542   0.00127  -0.00891  -0.00289   0.00378
  213 C6      .ZZ       0.01084  -0.00254   0.01781   0.00577  -0.00762
  214 C6      .XY       0.00000   0.00000   0.00000   0.00000  -0.00000
  215 C6      .XZ      -0.00000  -0.00000  -0.00001   0.00004  -0.00000
  216 C6      .YZ       0.00000  -0.00004  -0.00001  -0.00000  -0.00000
  217 C6      .XX      -0.00281   0.00067  -0.00472  -0.00153   0.00128
  218 C6      .YY      -0.00281   0.00067  -0.00472  -0.00153   0.00241
  219 C6      .ZZ       0.00562  -0.00134   0.00944   0.00306  -0.00369
  220 C6      .XY       0.00000  -0.00000  -0.00000   0.00000   0.00000
  221 C6      .XZ       0.00000   0.00001   0.00026  -0.00080   0.00000
  222 C6      .YZ      -0.00000   0.00084   0.00011   0.00004   0.00000
  223 C6      .XXX     -0.00000  -0.00000  -0.00001   0.00004  -0.00000
  224 C6      .YYY     -0.00000   0.00005   0.00001   0.00000  -0.00000
  225 C6      .ZZZ      0.00374  -0.00088   0.00622   0.00201  -0.00273
  226 C6      .XYY     -0.00000  -0.00000  -0.00002   0.00006  -0.00000
  227 C6      .XXY     -0.00000   0.00006   0.00001   0.00000   0.00000
  228 C6      .XXZ      0.00251  -0.00059   0.00417   0.00135  -0.00165
  229 C6      .XZZ      0.00000   0.00000   0.00000  -0.00000  -0.00000
  230 C6      .YZZ     -0.00000   0.00000   0.00000   0.00000  -0.00000
  231 C6      .YYZ      0.00251  -0.00059   0.00417   0.00135  -0.00165
  232 C6      .XYZ     -0.00000  -0.00000  -0.00000   0.00000   0.00000
  233 C7      .S       -0.02334  -0.00536   0.03764   0.01219   0.01583
  234 C7      .S       -0.04905  -0.01126   0.07916   0.02564   0.03332
  235 C7      .S        0.07769   0.01787  -0.12558  -0.04068  -0.05324
  236 C7      .S        0.04889   0.01139  -0.08007  -0.02594  -0.03387
  237 C7      .S        0.00201   0.00159  -0.01114  -0.00361  -0.00234
  238 C7      .X       -0.00000  -0.00000  -0.00012   0.00037  -0.00000
  239 C7      .Y        0.00000  -0.00038  -0.00005  -0.00002  -0.00000
  240 C7      .Z       -0.06662  -0.01570   0.11033   0.03574   0.04652
  241 C7      .X       -0.00000  -0.00001  -0.00034   0.00104  -0.00000
  242 C7      .Y        0.00000  -0.00108  -0.00014  -0.00005  -0.00000
  243 C7      .Z       -0.02550  -0.00600   0.04213   0.01365   0.01825
  244 C7      .X        0.00000   0.00000   0.00006  -0.00018  -0.00000
  245 C7      .Y        0.00000   0.00019   0.00002   0.00001   0.00000
  246 C7      .Z       -0.00043   0.00045  -0.00316  -0.00102  -0.00007
  247 C7      .XX      -0.00542  -0.00127   0.00891   0.00289   0.00384
  248 C7      .YY      -0.00542  -0.00127   0.00891   0.00289   0.00378
  249 C7      .ZZ       0.01084   0.00254  -0.01781  -0.00577  -0.00762
  250 C7      .XY      -0.00000   0.00000   0.00000   0.00000   0.00000
  251 C7      .XZ       0.00000   0.00000   0.00001  -0.00004   0.00000
  252 C7      .YZ      -0.00000   0.00004   0.00001   0.00000   0.00000
  253 C7      .XX      -0.00281  -0.00067   0.00472   0.00153   0.00128
  254 C7      .YY      -0.00281  -0.00067   0.00472   0.00153   0.00241
  255 C7      .ZZ       0.00562   0.00134  -0.00944  -0.00306  -0.00369
  256 C7      .XY       0.00000  -0.00000  -0.00000   0.00000   0.00000
  257 C7      .XZ      -0.00000  -0.00001  -0.00026   0.00080  -0.00000
  258 C7      .YZ       0.00000  -0.00084  -0.00011  -0.00004  -0.00000
  259 C7      .XXX     -0.00000  -0.00000  -0.00001   0.00004  -0.00000
  260 C7      .YYY     -0.00000   0.00005   0.00001   0.00000  -0.00000
  261 C7      .ZZZ     -0.00374  -0.00088   0.00622   0.00201   0.00273
  262 C7      .XYY     -0.00000  -0.00000  -0.00002   0.00006  -0.00000
  263 C7      .XXY     -0.00000   0.00006   0.00001   0.00000   0.00000
  264 C7      .XXZ     -0.00251  -0.00059   0.00417   0.00135   0.00165
  265 C7      .XZZ      0.00000   0.00000   0.00000  -0.00000   0.00000
  266 C7      .YZZ     -0.00000   0.00000   0.00000   0.00000  -0.00000
  267 C7      .YYZ     -0.00251  -0.00059   0.00417   0.00135   0.00165
  268 C7      .XYZ     -0.00000   0.00000   0.00000  -0.00000   0.00000
  269 O8      .S       -0.03745   0.00043   0.02012  -0.06192   0.02733
  270 O8      .S       -0.08835   0.00102   0.04746  -0.14607   0.06446
  271 O8      .S        0.12938  -0.00149  -0.06952   0.21396  -0.09446
  272 O8      .S        0.15659  -0.00180  -0.08408   0.25876  -0.11408
  273 O8      .S        0.04051  -0.00047  -0.02169   0.06674  -0.02926
  274 O8      .X       -0.05479   0.00063   0.02938  -0.09040   0.03987
  275 O8      .Y        0.00000  -0.00009  -0.00001  -0.00000  -0.00000
  276 O8      .Z        0.00000  -0.00001   0.00008   0.00003   0.00000
  277 O8      .X       -0.03480   0.00040   0.01862  -0.05731   0.02506
  278 O8      .Y        0.00000  -0.00027  -0.00003  -0.00001  -0.00000
  279 O8      .Z        0.00000  -0.00004   0.00026   0.00008   0.00000
  280 O8      .X       -0.00262   0.00002   0.00110  -0.00340   0.00168
  281 O8      .Y       -0.00000  -0.00011  -0.00001  -0.00001  -0.00000
  282 O8      .Z       -0.00000  -0.00001   0.00011   0.00003   0.00000
  283 O8      .XX       0.00315  -0.00004  -0.00169   0.00520  -0.00229
  284 O8      .YY      -0.00157   0.00002   0.00085  -0.00260   0.00115
  285 O8      .ZZ      -0.00157   0.00002   0.00085  -0.00260   0.00113
  286 O8      .XY       0.00000  -0.00000  -0.00000  -0.00000   0.00000
  287 O8      .XZ      -0.00000   0.00000  -0.00000  -0.00000  -0.00000
  288 O8      .YZ      -0.00000  -0.00000  -0.00000   0.00000  -0.00000
  289 O8      .XX       0.00455  -0.00005  -0.00239   0.00737  -0.00316
  290 O8      .YY      -0.00227   0.00003   0.00120  -0.00368   0.00155
  291 O8      .ZZ      -0.00227   0.00003   0.00120  -0.00368   0.00162
  292 O8      .XY       0.00000  -0.00011  -0.00001  -0.00001  -0.00000
  293 O8      .XZ      -0.00000   0.00001  -0.00010  -0.00003  -0.00000
  294 O8      .YZ       0.00000   0.00000   0.00000   0.00000  -0.00000
  295 O8      .XXX     -0.00027   0.00000   0.00014  -0.00044   0.00020
  296 O8      .YYY      0.00000  -0.00000  -0.00000  -0.00000  -0.00000
  297 O8      .ZZZ     -0.00000   0.00000  -0.00000  -0.00000  -0.00000
  298 O8      .XYY     -0.00072   0.00001   0.00038  -0.00118   0.00051
  299 O8      .XXY      0.00000  -0.00000  -0.00000  -0.00000  -0.00000
  300 O8      .XXZ      0.00000   0.00000  -0.00000  -0.00000  -0.00000
  301 O8      .XZZ      0.00072  -0.00001  -0.00038   0.00118  -0.00048
  302 O8      .YZZ     -0.00000  -0.00000  -0.00000  -0.00000  -0.00000
  303 O8      .YYZ      0.00000   0.00000  -0.00000  -0.00000  -0.00000
  304 O8      .XYZ     -0.00000  -0.00000  -0.00000  -0.00000   0.00000
  305 O9      .S       -0.03745  -0.06452  -0.00818  -0.00311  -0.05322
  306 O9      .S       -0.08835  -0.15220  -0.01928  -0.00733  -0.12555
  307 O9      .S        0.12938   0.22294   0.02825   0.01073   0.18398
  308 O9      .S        0.15659   0.26962   0.03416   0.01298   0.22220
  309 O9      .S        0.04051   0.06954   0.00881   0.00335   0.05699
  310 O9      .X       -0.00000  -0.00000  -0.00003   0.00008  -0.00000
  311 O9      .Y        0.05479   0.09420   0.01194   0.00453   0.07766
  312 O9      .Z        0.00000  -0.00001   0.00008   0.00003   0.00000
  313 O9      .X       -0.00000  -0.00000  -0.00009   0.00026  -0.00000
  314 O9      .Y        0.03480   0.05972   0.00757   0.00288   0.04880
  315 O9      .Z        0.00000  -0.00004   0.00026   0.00008   0.00000
  316 O9      .X       -0.00000  -0.00000  -0.00003   0.00011  -0.00000
  317 O9      .Y        0.00262   0.00354   0.00045   0.00017   0.00327
  318 O9      .Z       -0.00000  -0.00001   0.00011   0.00003   0.00000
  319 O9      .XX      -0.00157  -0.00271  -0.00034  -0.00013  -0.00223
  320 O9      .YY       0.00315   0.00542   0.00069   0.00026   0.00445
  321 O9      .ZZ      -0.00157  -0.00271  -0.00034  -0.00013  -0.00223
  322 O9      .XY       0.00000   0.00000   0.00000  -0.00000  -0.00000
  323 O9      .XZ      -0.00000  -0.00000  -0.00000  -0.00000   0.00000
  324 O9      .YZ      -0.00000  -0.00000   0.00000   0.00000  -0.00000
  325 O9      .XX      -0.00227  -0.00384  -0.00049  -0.00018  -0.00308
  326 O9      .YY       0.00455   0.00768   0.00097   0.00037   0.00616
  327 O9      .ZZ      -0.00227  -0.00384  -0.00049  -0.00018  -0.00308
  328 O9      .XY       0.00000   0.00000   0.00003  -0.00010   0.00000
  329 O9      .XZ       0.00000   0.00000   0.00000   0.00000   0.00000
  330 O9      .YZ       0.00000  -0.00001   0.00010   0.00003   0.00000
  331 O9      .XXX     -0.00000   0.00000   0.00000  -0.00000   0.00000
  332 O9      .YYY     -0.00108  -0.00183  -0.00023  -0.00009  -0.00145
  333 O9      .ZZZ     -0.00000   0.00000  -0.00000  -0.00000  -0.00000
  334 O9      .XYY     -0.00000   0.00000   0.00000  -0.00000   0.00000
  335 O9      .XXY     -0.00108  -0.00184  -0.00023  -0.00009  -0.00146
  336 O9      .XXZ      0.00000   0.00000  -0.00000  -0.00000   0.00000
  337 O9      .XZZ     -0.00000  -0.00000  -0.00000   0.00000   0.00000
  338 O9      .YZZ     -0.00072  -0.00123  -0.00016  -0.00006  -0.00097
  339 O9      .YYZ      0.00000   0.00000  -0.00000  -0.00000   0.00000
  340 O9      .XYZ     -0.00000   0.00000  -0.00000   0.00000   0.00000
  341 O10     .S       -0.03745  -0.00043  -0.02012   0.06192   0.02733
  342 O10     .S       -0.08835  -0.00102  -0.04746   0.14607   0.06446
  343 O10     .S        0.12938   0.00149   0.06952  -0.21396  -0.09446
  344 O10     .S        0.15659   0.00180   0.08408  -0.25876  -0.11408
  345 O10     .S        0.04051   0.00047   0.02169  -0.06674  -0.02926
  346 O10     .X        0.05479   0.00063   0.02938  -0.09040  -0.03987
  347 O10     .Y        0.00000  -0.00009  -0.00001  -0.00000  -0.00000
  348 O10     .Z        0.00000  -0.00001   0.00008   0.00003   0.00000
  349 O10     .X        0.03480   0.00040   0.01862  -0.05731  -0.02506
  350 O10     .Y        0.00000  -0.00027  -0.00003  -0.00001  -0.00000
  351 O10     .Z        0.00000  -0.00004   0.00026   0.00008   0.00000
  352 O10     .X        0.00262   0.00002   0.00110  -0.00340  -0.00168
  353 O10     .Y       -0.00000  -0.00011  -0.00001  -0.00001  -0.00000
  354 O10     .Z       -0.00000  -0.00001   0.00011   0.00003   0.00000
  355 O10     .XX       0.00315   0.00004   0.00169  -0.00520  -0.00229
  356 O10     .YY      -0.00157  -0.00002  -0.00085   0.00260   0.00115
  357 O10     .ZZ      -0.00157  -0.00002  -0.00085   0.00260   0.00113
  358 O10     .XY       0.00000   0.00000   0.00000   0.00000  -0.00000
  359 O10     .XZ      -0.00000  -0.00000   0.00000   0.00000  -0.00000
  360 O10     .YZ      -0.00000   0.00000   0.00000   0.00000  -0.00000
  361 O10     .XX       0.00455   0.00005   0.00239  -0.00737  -0.00316
  362 O10     .YY      -0.00227  -0.00003  -0.00120   0.00368   0.00155
  363 O10     .ZZ      -0.00227  -0.00003  -0.00120   0.00368   0.00162
  364 O10     .XY      -0.00000   0.00011   0.00001   0.00001   0.00000
  365 O10     .XZ       0.00000  -0.00001   0.00010   0.00003   0.00000
  366 O10     .YZ       0.00000  -0.00000  -0.00000  -0.00000  -0.00000
  367 O10     .XXX      0.00027   0.00000   0.00014  -0.00044  -0.00020
  368 O10     .YYY      0.00000  -0.00000  -0.00000  -0.00000  -0.00000
  369 O10     .ZZZ      0.00000   0.00000  -0.00000  -0.00000  -0.00000
  370 O10     .XYY      0.00072   0.00001   0.00038  -0.00118  -0.00051
  371 O10     .XXY      0.00000  -0.00000  -0.00000  -0.00000  -0.00000
  372 O10     .XXZ      0.00000   0.00000  -0.00000  -0.00000  -0.00000
  373 O10     .XZZ     -0.00072  -0.00001  -0.00038   0.00118   0.00048
  374 O10     .YZZ      0.00000  -0.00000  -0.00000  -0.00000  -0.00000
  375 O10     .YYZ      0.00000   0.00000  -0.00000  -0.00000  -0.00000
  376 O10     .XYZ     -0.00000   0.00000  -0.00000  -0.00000  -0.00000
  377 O11     .S       -0.03745   0.06452   0.00818   0.00311  -0.05322
  378 O11     .S       -0.08835   0.15220   0.01928   0.00733  -0.12555
  379 O11     .S        0.12938  -0.22294  -0.02825  -0.01073   0.18398
  380 O11     .S        0.15659  -0.26962  -0.03416  -0.01298   0.22220
  381 O11     .S        0.04051  -0.06954  -0.00881  -0.00335   0.05699
  382 O11     .X       -0.00000  -0.00000  -0.00003   0.00008  -0.00000
  383 O11     .Y       -0.05479   0.09420   0.01194   0.00453  -0.07766
  384 O11     .Z        0.00000  -0.00001   0.00008   0.00003   0.00000
  385 O11     .X       -0.00000  -0.00000  -0.00009   0.00026  -0.00000
  386 O11     .Y       -0.03480   0.05972   0.00757   0.00288  -0.04880
  387 O11     .Z        0.00000  -0.00004   0.00026   0.00008   0.00000
  388 O11     .X       -0.00000  -0.00000  -0.00003   0.00011  -0.00000
  389 O11     .Y       -0.00262   0.00354   0.00045   0.00017  -0.00327
  390 O11     .Z       -0.00000  -0.00001   0.00011   0.00003   0.00000
  391 O11     .XX      -0.00157   0.00271   0.00034   0.00013  -0.00223
  392 O11     .YY       0.00315  -0.00542  -0.00069  -0.00026   0.00445
  393 O11     .ZZ      -0.00157   0.00271   0.00034   0.00013  -0.00223
  394 O11     .XY      -0.00000  -0.00000  -0.00000   0.00000   0.00000
  395 O11     .XZ      -0.00000  -0.00000   0.00000  -0.00000  -0.00000
  396 O11     .YZ      -0.00000   0.00000  -0.00000  -0.00000   0.00000
  397 O11     .XX      -0.00227   0.00384   0.00049   0.00018  -0.00308
  398 O11     .YY       0.00455  -0.00768  -0.00097  -0.00037   0.00616
  399 O11     .ZZ      -0.00227   0.00384   0.00049   0.00018  -0.00308
  400 O11     .XY      -0.00000  -0.00000  -0.00003   0.00010  -0.00000
  401 O11     .XZ       0.00000   0.00000  -0.00000   0.00000   0.00000
  402 O11     .YZ      -0.00000   0.00001  -0.00010  -0.00003  -0.00000
  403 O11     .XXX      0.00000   0.00000   0.00000  -0.00000   0.00000
  404 O11     .YYY      0.00108  -0.00183  -0.00023  -0.00009   0.00145
  405 O11     .ZZZ     -0.00000   0.00000  -0.00000  -0.00000  -0.00000
  406 O11     .XYY      0.00000   0.00000   0.00000  -0.00000   0.00000
  407 O11     .XXY      0.00108  -0.00184  -0.00023  -0.00009   0.00146
  408 O11     .XXZ     -0.00000   0.00000  -0.00000  -0.00000  -0.00000
  409 O11     .XZZ      0.00000  -0.00000  -0.00000   0.00000   0.00000
  410 O11     .YZZ      0.00072  -0.00123  -0.00016  -0.00006   0.00097
  411 O11     .YYZ     -0.00000   0.00000  -0.00000  -0.00000  -0.00000
  412 O11     .XYZ     -0.00000   0.00000  -0.00000   0.00000   0.00000
  413 O12     .S       -0.03745   0.00873  -0.06138  -0.01988   0.02590
  414 O12     .S       -0.08835   0.02060  -0.14479  -0.04690   0.06109
  415 O12     .S        0.12938  -0.03018   0.21210   0.06871  -0.08952
  416 O12     .S        0.15659  -0.03650   0.25650   0.08309  -0.10812
  417 O12     .S        0.04051  -0.00941   0.06616   0.02143  -0.02773
  418 O12     .X       -0.00000  -0.00000  -0.00003   0.00008  -0.00000
  419 O12     .Y        0.00000  -0.00009  -0.00001  -0.00000  -0.00000
  420 O12     .Z       -0.05479   0.01275  -0.08961  -0.02903   0.03779
  421 O12     .X       -0.00000  -0.00000  -0.00009   0.00026  -0.00000
  422 O12     .Y        0.00000  -0.00027  -0.00003  -0.00001  -0.00000
  423 O12     .Z       -0.03480   0.00808  -0.05681  -0.01840   0.02375
  424 O12     .X       -0.00000  -0.00000  -0.00003   0.00011  -0.00000
  425 O12     .Y       -0.00000  -0.00011  -0.00001  -0.00001  -0.00000
  426 O12     .Z       -0.00262   0.00048  -0.00337  -0.00109   0.00159
  427 O12     .XX      -0.00157   0.00037  -0.00258  -0.00084   0.00107
  428 O12     .YY      -0.00157   0.00037  -0.00258  -0.00084   0.00110
  429 O12     .ZZ       0.00315  -0.00073   0.00516   0.00167  -0.00217
  430 O12     .XY      -0.00000   0.00000   0.00000  -0.00000   0.00000
  431 O12     .XZ       0.00000   0.00000   0.00000  -0.00000  -0.00000
  432 O12     .YZ       0.00000   0.00000   0.00000   0.00000  -0.00000
  433 O12     .XX      -0.00227   0.00052  -0.00365  -0.00118   0.00154
  434 O12     .YY      -0.00227   0.00052  -0.00365  -0.00118   0.00146
  435 O12     .ZZ       0.00455  -0.00104   0.00730   0.00237  -0.00300
  436 O12     .XY       0.00000  -0.00000   0.00000   0.00000  -0.00000
  437 O12     .XZ       0.00000   0.00000   0.00003  -0.00010   0.00000
  438 O12     .YZ      -0.00000   0.00011   0.00001   0.00001   0.00000
  439 O12     .XXX     -0.00000  -0.00000  -0.00000   0.00000   0.00000
  440 O12     .YYY     -0.00000  -0.00000  -0.00000  -0.00000   0.00000
  441 O12     .ZZZ     -0.00108   0.00025  -0.00174  -0.00056   0.00071
  442 O12     .XYY     -0.00000   0.00000   0.00000  -0.00000  -0.00000
  443 O12     .XXY     -0.00000  -0.00000  -0.00000  -0.00000  -0.00000
  444 O12     .XXZ     -0.00072   0.00017  -0.00117  -0.00038   0.00049
  445 O12     .XZZ     -0.00000  -0.00000  -0.00000   0.00000   0.00000
  446 O12     .YZZ     -0.00000  -0.00000  -0.00000  -0.00000   0.00000
  447 O12     .YYZ     -0.00072   0.00017  -0.00117  -0.00038   0.00049
  448 O12     .XYZ     -0.00000  -0.00000   0.00000  -0.00000  -0.00000
  449 O13     .S       -0.03745  -0.00873   0.06138   0.01988   0.02590
  450 O13     .S       -0.08835  -0.02060   0.14479   0.04690   0.06109
  451 O13     .S        0.12938   0.03018  -0.21210  -0.06871  -0.08952
  452 O13     .S        0.15659   0.03650  -0.25650  -0.08309  -0.10812
  453 O13     .S        0.04051   0.00941  -0.06616  -0.02143  -0.02773
  454 O13     .X       -0.00000  -0.00000  -0.00003   0.00008  -0.00000
  455 O13     .Y        0.00000  -0.00009  -0.00001  -0.00000  -0.00000
  456 O13     .Z        0.05479   0.01275  -0.08961  -0.02903  -0.03779
  457 O13     .X       -0.00000  -0.00000  -0.00009   0.00026  -0.00000
  458 O13     .Y        0.00000  -0.00027  -0.00003  -0.00001  -0.00000
  459 O13     .Z        0.03480   0.00808  -0.05681  -0.01840  -0.02375
  460 O13     .X       -0.00000  -0.00000  -0.00003   0.00011   0.00000
  461 O13     .Y       -0.00000  -0.00011  -0.00001  -0.00001  -0.00000
  462 O13     .Z        0.00262   0.00048  -0.00337  -0.00109  -0.00159
  463 O13     .XX      -0.00157  -0.00037   0.00258   0.00084   0.00107
  464 O13     .YY      -0.00157  -0.00037   0.00258   0.00084   0.00110
  465 O13     .ZZ       0.00315   0.00073  -0.00516  -0.00167  -0.00217
  466 O13     .XY       0.00000  -0.00000   0.00000  -0.00000   0.00000
  467 O13     .XZ      -0.00000  -0.00000  -0.00000   0.00000  -0.00000
  468 O13     .YZ       0.00000  -0.00000  -0.00000  -0.00000   0.00000
  469 O13     .XX      -0.00227  -0.00052   0.00365   0.00118   0.00154
  470 O13     .YY      -0.00227  -0.00052   0.00365   0.00118   0.00146
  471 O13     .ZZ       0.00455   0.00104  -0.00730  -0.00237  -0.00300
  472 O13     .XY      -0.00000   0.00000   0.00000   0.00000  -0.00000
  473 O13     .XZ      -0.00000  -0.00000  -0.00003   0.00010  -0.00000
  474 O13     .YZ       0.00000  -0.00011  -0.00001  -0.00001  -0.00000
  475 O13     .XXX     -0.00000  -0.00000  -0.00000   0.00000  -0.00000
  476 O13     .YYY      0.00000  -0.00000  -0.00000  -0.00000   0.00000
  477 O13     .ZZZ      0.00108   0.00025  -0.00174  -0.00056  -0.00071
  478 O13     .XYY      0.00000   0.00000   0.00000  -0.00000   0.00000
  479 O13     .XXY      0.00000  -0.00000  -0.00000  -0.00000   0.00000
  480 O13     .XXZ      0.00072   0.00017  -0.00117  -0.00038  -0.00049
  481 O13     .XZZ     -0.00000  -0.00000  -0.00000   0.00000  -0.00000
  482 O13     .YZZ      0.00000  -0.00000  -0.00000  -0.00000   0.00000
  483 O13     .YYZ      0.00072   0.00017  -0.00117  -0.00038  -0.00049
  484 O13     .XYZ     -0.00000   0.00000  -0.00000  -0.00000   0.00000
                           6         7         8         9        10
                           O         O         O         O         O    
     Eigenvalues --   -32.35578 -17.61712 -16.35184 -16.35184 -16.35184
    1 Cr1     .S        0.00000  -0.01965  -0.00000   0.00000  -0.00000
    2 Cr1     .S       -0.00000   0.06345   0.00000  -0.00000   0.00000
    3 Cr1     .S       -0.00000  -0.15501  -0.00000   0.00000  -0.00000
    4 Cr1     .S        0.00000  -0.11835   0.00000  -0.00000   0.00000
    5 Cr1     .S       -0.00000   0.18378  -0.00000   0.00000  -0.00000
    6 Cr1     .S       -0.00000  -0.01354  -0.00000  -0.00000  -0.00000
    7 Cr1     .X       -0.00000  -0.00000  -0.00039   0.00201   0.03496
    8 Cr1     .Y        0.00000   0.00000  -0.03502   0.00039  -0.00042
    9 Cr1     .Z       -0.00000   0.00000   0.00042   0.03496  -0.00201
   10 Cr1     .X        0.00000   0.00000   0.00109  -0.00557  -0.09690
   11 Cr1     .Y       -0.00000  -0.00000   0.09705  -0.00109   0.00116
   12 Cr1     .Z        0.00000  -0.00000  -0.00115  -0.09690   0.00556
   13 Cr1     .X       -0.00000   0.00000   0.00014  -0.00073  -0.01264
   14 Cr1     .Y       -0.00000   0.00000   0.01266  -0.00014   0.00015
   15 Cr1     .Z        0.00000  -0.00000  -0.00015  -0.01264   0.00073
   16 Cr1     .X        0.00000  -0.00000   0.00010  -0.00052  -0.00912
   17 Cr1     .Y        0.00000  -0.00000   0.00914  -0.00010   0.00011
   18 Cr1     .Z        0.00000  -0.00000  -0.00011  -0.00912   0.00052
   19 Cr1     .XX      -0.00166  -0.00000   0.00000  -0.00000  -0.00000
   20 Cr1     .YY      -0.00003   0.00000  -0.00000  -0.00000   0.00000
   21 Cr1     .ZZ       0.00169   0.00000   0.00000   0.00000   0.00000
   22 Cr1     .XY       0.00000  -0.00000  -0.00000  -0.00000  -0.00000
   23 Cr1     .XZ      -0.00000  -0.00000  -0.00000  -0.00000   0.00000
   24 Cr1     .YZ       0.00000   0.00000  -0.00000   0.00000   0.00000
   25 Cr1     .XX      -0.00501   0.00000   0.00000  -0.00000  -0.00000
   26 Cr1     .YY      -0.00009  -0.00000  -0.00000  -0.00000   0.00000
   27 Cr1     .ZZ       0.00510  -0.00000   0.00000   0.00000   0.00000
   28 Cr1     .XY      -0.00000  -0.00000  -0.00000   0.00000  -0.00000
   29 Cr1     .XZ       0.00000  -0.00000  -0.00000  -0.00000   0.00000
   30 Cr1     .YZ       0.00000   0.00000  -0.00000  -0.00000  -0.00000
   31 Cr1     .XX       0.00367   0.00000  -0.00000  -0.00000   0.00000
   32 Cr1     .YY       0.00007  -0.00000   0.00000  -0.00000  -0.00000
   33 Cr1     .ZZ      -0.00374  -0.00000  -0.00000   0.00000  -0.00000
   34 Cr1     .XY       0.00000  -0.00000   0.00000  -0.00000   0.00000
   35 Cr1     .XZ      -0.00000  -0.00000   0.00000  -0.00000   0.00000
   36 Cr1     .YZ      -0.00000  -0.00000   0.00000   0.00000   0.00000
   37 Cr1     .XX      -0.00057  -0.00000   0.00000   0.00000  -0.00000
   38 Cr1     .YY      -0.00001   0.00000  -0.00000   0.00000   0.00000
   39 Cr1     .ZZ       0.00058   0.00000   0.00000  -0.00000  -0.00000
   40 Cr1     .XY       0.00000   0.00000   0.00000   0.00000   0.00000
   41 Cr1     .XZ      -0.00000   0.00000   0.00000   0.00000   0.00000
   42 Cr1     .YZ      -0.00000   0.00000   0.00000   0.00000   0.00000
   43 Cr1     .XXX     -0.00000  -0.00000  -0.00001   0.00004   0.00072
   44 Cr1     .YYY     -0.00000   0.00000   0.00289  -0.00003   0.00003
   45 Cr1     .ZZZ     -0.00000  -0.00000   0.00003   0.00288  -0.00017
   46 Cr1     .XYY     -0.00000  -0.00000  -0.00002   0.00011   0.00193
   47 Cr1     .XXY     -0.00000   0.00000   0.00290  -0.00003   0.00003
   48 Cr1     .XXZ     -0.00000  -0.00000   0.00002   0.00193  -0.00011
   49 Cr1     .XZZ      0.00000   0.00000   0.00002  -0.00011  -0.00193
   50 Cr1     .YZZ     -0.00000   0.00000   0.00194  -0.00002   0.00002
   51 Cr1     .YYZ     -0.00000  -0.00000   0.00002   0.00193  -0.00011
   52 Cr1     .XYZ     -0.00000  -0.00000  -0.00000  -0.00000  -0.00000
   53 C2      .S        0.02792  -0.03338   0.00059  -0.00298  -0.05186
   54 C2      .S        0.05878  -0.07180   0.00127  -0.00646  -0.11232
   55 C2      .S       -0.09391   0.11105  -0.00208   0.01061   0.18454
   56 C2      .S       -0.05974   0.16068  -0.00260   0.01327   0.23072
   57 C2      .S       -0.00413   0.02121  -0.00061   0.00311   0.05402
   58 C2      .X       -0.08206  -0.04052  -0.00034   0.00173   0.03012
   59 C2      .Y        0.00000  -0.00000  -0.02045   0.00023  -0.00024
   60 C2      .Z       -0.00000   0.00000   0.00024   0.02042  -0.00117
   61 C2      .X       -0.03218  -0.03754  -0.00001   0.00006   0.00112
   62 C2      .Y        0.00000   0.00000  -0.01887   0.00021  -0.00023
   63 C2      .Z       -0.00000   0.00000   0.00022   0.01884  -0.00108
   64 C2      .X        0.00012  -0.00300   0.00046  -0.00236  -0.04106
   65 C2      .Y        0.00000  -0.00000  -0.00261   0.00003  -0.00003
   66 C2      .Z       -0.00000  -0.00000   0.00003   0.00261  -0.00015
   67 C2      .XX      -0.01345   0.00009  -0.00008   0.00040   0.00692
   68 C2      .YY       0.00674  -0.00004   0.00004  -0.00020  -0.00346
   69 C2      .ZZ       0.00671  -0.00004   0.00004  -0.00020  -0.00346
   70 C2      .XY       0.00000  -0.00000   0.00041  -0.00000   0.00000
   71 C2      .XZ      -0.00000   0.00000   0.00000   0.00041  -0.00002
   72 C2      .YZ      -0.00000  -0.00000   0.00000   0.00000  -0.00000
   73 C2      .XX      -0.00652   0.00733  -0.00010   0.00051   0.00885
   74 C2      .YY       0.00293  -0.00367   0.00005  -0.00025  -0.00443
   75 C2      .ZZ       0.00359  -0.00367   0.00005  -0.00025  -0.00443
   76 C2      .XY      -0.00000   0.00000  -0.00258   0.00003  -0.00003
   77 C2      .XZ       0.00000  -0.00000  -0.00003  -0.00258   0.00015
   78 C2      .YZ       0.00000   0.00000  -0.00000  -0.00000  -0.00000
   79 C2      .XXX     -0.00132  -0.00008  -0.00001   0.00004   0.00069
   80 C2      .YYY     -0.00000   0.00000  -0.00034   0.00000  -0.00000
   81 C2      .ZZZ     -0.00000  -0.00000  -0.00000  -0.00034   0.00002
   82 C2      .XYY     -0.00333  -0.00022  -0.00002   0.00011   0.00186
   83 C2      .XXY     -0.00000   0.00000  -0.00062   0.00001  -0.00001
   84 C2      .XXZ     -0.00000  -0.00000   0.00000   0.00032  -0.00002
   85 C2      .XZZ      0.00312   0.00022   0.00002  -0.00011  -0.00186
   86 C2      .YZZ     -0.00000  -0.00000   0.00032  -0.00000   0.00000
   87 C2      .YYZ     -0.00000  -0.00000   0.00000   0.00032  -0.00002
   88 C2      .XYZ      0.00000  -0.00000   0.00000   0.00000   0.00000
   89 C3      .S        0.00050  -0.03338  -0.05194   0.00058  -0.00062
   90 C3      .S        0.00106  -0.07180  -0.11250   0.00126  -0.00134
   91 C3      .S       -0.00169   0.11105   0.18483  -0.00208   0.00220
   92 C3      .S       -0.00108   0.16068   0.23109  -0.00259   0.00276
   93 C3      .S       -0.00007   0.02121   0.05411  -0.00061   0.00065
   94 C3      .X       -0.00000  -0.00000  -0.00023   0.00117   0.02042
   95 C3      .Y        0.00148   0.04052  -0.03017   0.00034  -0.00036
   96 C3      .Z       -0.00000   0.00000   0.00024   0.02042  -0.00117
   97 C3      .X       -0.00000  -0.00000  -0.00021   0.00108   0.01884
   98 C3      .Y        0.00058   0.03754  -0.00112   0.00001  -0.00001
   99 C3      .Z       -0.00000   0.00000   0.00022   0.01884  -0.00108
  100 C3      .X        0.00000  -0.00000  -0.00003   0.00015   0.00261
  101 C3      .Y       -0.00000   0.00300   0.04113  -0.00046   0.00049
  102 C3      .Z       -0.00000  -0.00000   0.00003   0.00261  -0.00015
  103 C3      .XX       0.00016  -0.00004  -0.00347   0.00004  -0.00004
  104 C3      .YY      -0.00024   0.00009   0.00693  -0.00008   0.00008
  105 C3      .ZZ       0.00008  -0.00004  -0.00347   0.00004  -0.00004
  106 C3      .XY      -0.00000  -0.00000  -0.00000   0.00002   0.00041
  107 C3      .XZ      -0.00000  -0.00000   0.00000   0.00000   0.00000
  108 C3      .YZ       0.00000  -0.00000  -0.00000  -0.00041   0.00002
  109 C3      .XX      -0.00059  -0.00367  -0.00443   0.00005  -0.00005
  110 C3      .YY      -0.00012   0.00733   0.00887  -0.00010   0.00011
  111 C3      .ZZ       0.00071  -0.00367  -0.00443   0.00005  -0.00005
  112 C3      .XY       0.00000   0.00000   0.00003  -0.00015  -0.00258
  113 C3      .XZ       0.00000   0.00000  -0.00000  -0.00000  -0.00000
  114 C3      .YZ      -0.00000   0.00000   0.00003   0.00258  -0.00015
  115 C3      .XXX      0.00000   0.00000   0.00001  -0.00004  -0.00070
  116 C3      .YYY     -0.00009  -0.00033   0.00278  -0.00003   0.00003
  117 C3      .ZZZ     -0.00000  -0.00000  -0.00000  -0.00034   0.00002
  118 C3      .XYY      0.00000   0.00000   0.00001  -0.00004  -0.00078
  119 C3      .XXY     -0.00019  -0.00033   0.00280  -0.00003   0.00003
  120 C3      .XXZ     -0.00000  -0.00000  -0.00001  -0.00078   0.00004
  121 C3      .XZZ      0.00000   0.00000   0.00000  -0.00002  -0.00032
  122 C3      .YZZ      0.00015  -0.00022   0.00186  -0.00002   0.00002
  123 C3      .YYZ     -0.00000  -0.00000  -0.00001  -0.00078   0.00004
  124 C3      .XYZ      0.00000  -0.00000  -0.00000  -0.00000  -0.00000
  125 C4      .S        0.02792  -0.03338  -0.00059   0.00298   0.05186
  126 C4      .S        0.05878  -0.07180  -0.00127   0.00646   0.11232
  127 C4      .S       -0.09391   0.11105   0.00208  -0.01061  -0.18454
  128 C4      .S       -0.05974   0.16068   0.00260  -0.01327  -0.23072
  129 C4      .S       -0.00413   0.02121   0.00061  -0.00311  -0.05402
  130 C4      .X        0.08206   0.04052  -0.00034   0.00173   0.03012
  131 C4      .Y        0.00000  -0.00000  -0.02045   0.00023  -0.00024
  132 C4      .Z       -0.00000   0.00000   0.00024   0.02042  -0.00117
  133 C4      .X        0.03218   0.03754  -0.00001   0.00006   0.00112
  134 C4      .Y       -0.00000   0.00000  -0.01887   0.00021  -0.00023
  135 C4      .Z       -0.00000   0.00000   0.00022   0.01884  -0.00108
  136 C4      .X       -0.00012   0.00300   0.00046  -0.00236  -0.04106
  137 C4      .Y        0.00000  -0.00000  -0.00261   0.00003  -0.00003
  138 C4      .Z        0.00000  -0.00000   0.00003   0.00261  -0.00015
  139 C4      .XX      -0.01345   0.00009   0.00008  -0.00040  -0.00692
  140 C4      .YY       0.00674  -0.00004  -0.00004   0.00020   0.00346
  141 C4      .ZZ       0.00671  -0.00004  -0.00004   0.00020   0.00346
  142 C4      .XY      -0.00000   0.00000  -0.00041   0.00000  -0.00000
  143 C4      .XZ       0.00000  -0.00000  -0.00000  -0.00041   0.00002
  144 C4      .YZ      -0.00000  -0.00000   0.00000   0.00000   0.00000
  145 C4      .XX      -0.00652   0.00733   0.00010  -0.00051  -0.00885
  146 C4      .YY       0.00293  -0.00367  -0.00005   0.00025   0.00443
  147 C4      .ZZ       0.00359  -0.00367  -0.00005   0.00025   0.00443
  148 C4      .XY       0.00000  -0.00000   0.00258  -0.00003   0.00003
  149 C4      .XZ      -0.00000   0.00000   0.00003   0.00258  -0.00015
  150 C4      .YZ       0.00000   0.00000  -0.00000  -0.00000  -0.00000
  151 C4      .XXX      0.00132   0.00008  -0.00001   0.00004   0.00069
  152 C4      .YYY     -0.00000   0.00000  -0.00034   0.00000  -0.00000
  153 C4      .ZZZ     -0.00000  -0.00000  -0.00000  -0.00034   0.00002
  154 C4      .XYY      0.00333   0.00022  -0.00002   0.00011   0.00186
  155 C4      .XXY     -0.00000   0.00000  -0.00062   0.00001  -0.00001
  156 C4      .XXZ     -0.00000  -0.00000   0.00000   0.00032  -0.00002
  157 C4      .XZZ     -0.00312  -0.00022   0.00002  -0.00011  -0.00186
  158 C4      .YZZ     -0.00000  -0.00000   0.00032  -0.00000   0.00000
  159 C4      .YYZ     -0.00000  -0.00000   0.00000   0.00032  -0.00002
  160 C4      .XYZ      0.00000  -0.00000  -0.00000  -0.00000   0.00000
  161 C5      .S        0.00050  -0.03338   0.05194  -0.00058   0.00062
  162 C5      .S        0.00106  -0.07180   0.11250  -0.00126   0.00134
  163 C5      .S       -0.00169   0.11105  -0.18483   0.00208  -0.00220
  164 C5      .S       -0.00108   0.16068  -0.23109   0.00259  -0.00276
  165 C5      .S       -0.00007   0.02121  -0.05411   0.00061  -0.00065
  166 C5      .X       -0.00000  -0.00000  -0.00023   0.00117   0.02042
  167 C5      .Y       -0.00148  -0.04052  -0.03017   0.00034  -0.00036
  168 C5      .Z       -0.00000   0.00000   0.00024   0.02042  -0.00117
  169 C5      .X       -0.00000  -0.00000  -0.00021   0.00108   0.01884
  170 C5      .Y       -0.00058  -0.03754  -0.00112   0.00001  -0.00001
  171 C5      .Z       -0.00000   0.00000   0.00022   0.01884  -0.00108
  172 C5      .X        0.00000  -0.00000  -0.00003   0.00015   0.00261
  173 C5      .Y        0.00000  -0.00300   0.04113  -0.00046   0.00049
  174 C5      .Z        0.00000  -0.00000   0.00003   0.00261  -0.00015
  175 C5      .XX       0.00016  -0.00004   0.00347  -0.00004   0.00004
  176 C5      .YY      -0.00024   0.00009  -0.00693   0.00008  -0.00008
  177 C5      .ZZ       0.00008  -0.00004   0.00347  -0.00004   0.00004
  178 C5      .XY       0.00000   0.00000   0.00000  -0.00002  -0.00041
  179 C5      .XZ      -0.00000  -0.00000   0.00000  -0.00000   0.00000
  180 C5      .YZ      -0.00000   0.00000   0.00000   0.00041  -0.00002
  181 C5      .XX      -0.00059  -0.00367   0.00443  -0.00005   0.00005
  182 C5      .YY      -0.00012   0.00733  -0.00887   0.00010  -0.00011
  183 C5      .ZZ       0.00071  -0.00367   0.00443  -0.00005   0.00005
  184 C5      .XY      -0.00000  -0.00000  -0.00003   0.00015   0.00258
  185 C5      .XZ       0.00000   0.00000  -0.00000  -0.00000  -0.00000
  186 C5      .YZ       0.00000  -0.00000  -0.00003  -0.00258   0.00015
  187 C5      .XXX      0.00000   0.00000   0.00001  -0.00004  -0.00070
  188 C5      .YYY      0.00009   0.00033   0.00278  -0.00003   0.00003
  189 C5      .ZZZ     -0.00000  -0.00000  -0.00000  -0.00034   0.00002
  190 C5      .XYY      0.00000  -0.00000   0.00001  -0.00004  -0.00078
  191 C5      .XXY      0.00019   0.00033   0.00280  -0.00003   0.00003
  192 C5      .XXZ     -0.00000  -0.00000  -0.00001  -0.00078   0.00004
  193 C5      .XZZ      0.00000   0.00000   0.00000  -0.00002  -0.00032
  194 C5      .YZZ     -0.00015   0.00022   0.00186  -0.00002   0.00002
  195 C5      .YYZ     -0.00000  -0.00000  -0.00001  -0.00078   0.00004
  196 C5      .XYZ      0.00000  -0.00000  -0.00000   0.00000  -0.00000
  197 C6      .S       -0.02843  -0.03338  -0.00062  -0.05186   0.00298
  198 C6      .S       -0.05984  -0.07180  -0.00134  -0.11232   0.00645
  199 C6      .S        0.09561   0.11105   0.00220   0.18454  -0.01059
  200 C6      .S        0.06082   0.16068   0.00275   0.23072  -0.01324
  201 C6      .S        0.00420   0.02121   0.00064   0.05402  -0.00310
  202 C6      .X       -0.00000  -0.00000  -0.00023   0.00117   0.02042
  203 C6      .Y        0.00000  -0.00000  -0.02045   0.00023  -0.00024
  204 C6      .Z        0.08354  -0.04052   0.00036   0.03012  -0.00173
  205 C6      .X       -0.00000   0.00000  -0.00021   0.00108   0.01884
  206 C6      .Y        0.00000   0.00000  -0.01887   0.00021  -0.00023
  207 C6      .Z        0.03276  -0.03754   0.00001   0.00112  -0.00006
  208 C6      .X        0.00000  -0.00000  -0.00003   0.00015   0.00261
  209 C6      .Y        0.00000  -0.00000  -0.00261   0.00003  -0.00003
  210 C6      .Z       -0.00012  -0.00300  -0.00049  -0.04106   0.00236
  211 C6      .XX      -0.00683  -0.00004  -0.00004  -0.00346   0.00020
  212 C6      .YY      -0.00686  -0.00004  -0.00004  -0.00346   0.00020
  213 C6      .ZZ       0.01369   0.00009   0.00008   0.00692  -0.00040
  214 C6      .XY       0.00000   0.00000   0.00000  -0.00000  -0.00000
  215 C6      .XZ      -0.00000  -0.00000  -0.00000   0.00002   0.00041
  216 C6      .YZ      -0.00000   0.00000  -0.00041   0.00000  -0.00000
  217 C6      .XX      -0.00363  -0.00367  -0.00005  -0.00443   0.00025
  218 C6      .YY      -0.00300  -0.00367  -0.00005  -0.00443   0.00025
  219 C6      .ZZ       0.00663   0.00733   0.00011   0.00885  -0.00051
  220 C6      .XY      -0.00000   0.00000  -0.00000   0.00000  -0.00000
  221 C6      .XZ       0.00000   0.00000   0.00003  -0.00015  -0.00258
  222 C6      .YZ       0.00000  -0.00000   0.00258  -0.00003   0.00003
  223 C6      .XXX     -0.00000  -0.00000  -0.00001   0.00003   0.00053
  224 C6      .YYY     -0.00000   0.00000  -0.00034   0.00000  -0.00000
  225 C6      .ZZZ      0.00490  -0.00033   0.00003   0.00277  -0.00016
  226 C6      .XYY     -0.00000  -0.00000  -0.00000   0.00002   0.00032
  227 C6      .XXY     -0.00000   0.00000  -0.00007   0.00000  -0.00000
  228 C6      .XXZ      0.00339  -0.00022   0.00002   0.00186  -0.00011
  229 C6      .XZZ     -0.00000   0.00000  -0.00001   0.00004   0.00078
  230 C6      .YZZ     -0.00000   0.00000  -0.00078   0.00001  -0.00001
  231 C6      .YYZ      0.00339  -0.00022   0.00002   0.00186  -0.00011
  232 C6      .XYZ     -0.00000  -0.00000  -0.00000   0.00000  -0.00000
  233 C7      .S       -0.02843  -0.03338   0.00062   0.05186  -0.00298
  234 C7      .S       -0.05984  -0.07180   0.00134   0.11232  -0.00645
  235 C7      .S        0.09561   0.11105  -0.00220  -0.18454   0.01059
  236 C7      .S        0.06082   0.16068  -0.00275  -0.23072   0.01324
  237 C7      .S        0.00420   0.02121  -0.00064  -0.05402   0.00310
  238 C7      .X       -0.00000  -0.00000  -0.00023   0.00117   0.02042
  239 C7      .Y        0.00000  -0.00000  -0.02045   0.00023  -0.00024
  240 C7      .Z       -0.08354   0.04052   0.00036   0.03012  -0.00173
  241 C7      .X       -0.00000  -0.00000  -0.00021   0.00108   0.01884
  242 C7      .Y       -0.00000   0.00000  -0.01887   0.00021  -0.00023
  243 C7      .Z       -0.03276   0.03754   0.00001   0.00112  -0.00006
  244 C7      .X        0.00000  -0.00000  -0.00003   0.00015   0.00261
  245 C7      .Y        0.00000   0.00000  -0.00261   0.00003  -0.00003
  246 C7      .Z        0.00012   0.00300  -0.00049  -0.04106   0.00236
  247 C7      .XX      -0.00683  -0.00004   0.00004   0.00346  -0.00020
  248 C7      .YY      -0.00686  -0.00004   0.00004   0.00346  -0.00020
  249 C7      .ZZ       0.01369   0.00009  -0.00008  -0.00692   0.00040
  250 C7      .XY       0.00000   0.00000   0.00000  -0.00000  -0.00000
  251 C7      .XZ       0.00000   0.00000   0.00000  -0.00002  -0.00041
  252 C7      .YZ       0.00000  -0.00000   0.00041  -0.00000   0.00000
  253 C7      .XX      -0.00363  -0.00367   0.00005   0.00443  -0.00025
  254 C7      .YY      -0.00300  -0.00367   0.00005   0.00443  -0.00025
  255 C7      .ZZ       0.00663   0.00733  -0.00011  -0.00885   0.00051
  256 C7      .XY      -0.00000   0.00000  -0.00000   0.00000  -0.00000
  257 C7      .XZ      -0.00000  -0.00000  -0.00003   0.00015   0.00258
  258 C7      .YZ      -0.00000   0.00000  -0.00258   0.00003  -0.00003
  259 C7      .XXX     -0.00000  -0.00000  -0.00001   0.00003   0.00053
  260 C7      .YYY     -0.00000   0.00000  -0.00034   0.00000  -0.00000
  261 C7      .ZZZ     -0.00490   0.00033   0.00003   0.00277  -0.00016
  262 C7      .XYY     -0.00000  -0.00000  -0.00000   0.00002   0.00032
  263 C7      .XXY     -0.00000   0.00000  -0.00007   0.00000  -0.00000
  264 C7      .XXZ     -0.00339   0.00022   0.00002   0.00186  -0.00011
  265 C7      .XZZ     -0.00000  -0.00000  -0.00001   0.00004   0.00078
  266 C7      .YZZ     -0.00000   0.00000  -0.00078   0.00001  -0.00001
  267 C7      .YYZ     -0.00339   0.00022   0.00002   0.00186  -0.00011
  268 C7      .XYZ      0.00000   0.00000   0.00000  -0.00000   0.00000
  269 O8      .S        0.04568   0.01840  -0.00042   0.00214   0.03722
  270 O8      .S        0.10775   0.04399  -0.00100   0.00512   0.08898
  271 O8      .S       -0.15791  -0.06700   0.00149  -0.00761  -0.13230
  272 O8      .S       -0.19071  -0.10408   0.00256  -0.01306  -0.22710
  273 O8      .S       -0.04892  -0.07280   0.00164  -0.00836  -0.14531
  274 O8      .X        0.06666  -0.07228   0.00257  -0.01312  -0.22814
  275 O8      .Y        0.00000  -0.00000  -0.01684   0.00019  -0.00020
  276 O8      .Z       -0.00000   0.00000   0.00020   0.01682  -0.00097
  277 O8      .X        0.04189  -0.05300   0.00187  -0.00953  -0.16571
  278 O8      .Y       -0.00000   0.00000  -0.01427   0.00016  -0.00017
  279 O8      .Z       -0.00000   0.00000   0.00017   0.01425  -0.00082
  280 O8      .X        0.00280  -0.02036   0.00078  -0.00396  -0.06878
  281 O8      .Y       -0.00000   0.00000  -0.00621   0.00007  -0.00007
  282 O8      .Z       -0.00000   0.00000   0.00007   0.00620  -0.00036
  283 O8      .XX      -0.00382   0.00186  -0.00007   0.00036   0.00618
  284 O8      .YY       0.00190  -0.00093   0.00003  -0.00018  -0.00309
  285 O8      .ZZ       0.00192  -0.00093   0.00003  -0.00018  -0.00309
  286 O8      .XY       0.00000  -0.00000  -0.00057   0.00001  -0.00001
  287 O8      .XZ       0.00000   0.00000  -0.00001  -0.00056   0.00003
  288 O8      .YZ      -0.00000   0.00000   0.00000   0.00000   0.00000
  289 O8      .XX      -0.00529   0.00456  -0.00012   0.00061   0.01055
  290 O8      .YY       0.00267  -0.00228   0.00006  -0.00030  -0.00528
  291 O8      .ZZ       0.00262  -0.00228   0.00006  -0.00030  -0.00528
  292 O8      .XY      -0.00000   0.00000  -0.00176   0.00002  -0.00002
  293 O8      .XZ       0.00000  -0.00000  -0.00002  -0.00176   0.00010
  294 O8      .YZ      -0.00000  -0.00000   0.00000  -0.00000  -0.00000
  295 O8      .XXX      0.00030  -0.00020   0.00000  -0.00003  -0.00044
  296 O8      .YYY     -0.00000  -0.00000  -0.00018   0.00000  -0.00000
  297 O8      .ZZZ      0.00000   0.00000  -0.00000  -0.00018   0.00001
  298 O8      .XYY      0.00083  -0.00054   0.00001  -0.00007  -0.00117
  299 O8      .XXY     -0.00000  -0.00000  -0.00029   0.00000  -0.00000
  300 O8      .XXZ     -0.00000  -0.00000   0.00000   0.00008  -0.00000
  301 O8      .XZZ     -0.00084   0.00054  -0.00001   0.00007   0.00117
  302 O8      .YZZ      0.00000   0.00000   0.00008  -0.00000   0.00000
  303 O8      .YYZ     -0.00000  -0.00000   0.00000   0.00008  -0.00000
  304 O8      .XYZ      0.00000  -0.00000  -0.00000  -0.00000   0.00000
  305 O9      .S        0.00082   0.01840   0.03728  -0.00042   0.00044
  306 O9      .S        0.00194   0.04399   0.08912  -0.00100   0.00106
  307 O9      .S       -0.00285  -0.06700  -0.13251   0.00149  -0.00158
  308 O9      .S       -0.00344  -0.10408  -0.22746   0.00255  -0.00271
  309 O9      .S       -0.00088  -0.07280  -0.14554   0.00163  -0.00174
  310 O9      .X       -0.00000  -0.00000  -0.00019   0.00097   0.01682
  311 O9      .Y       -0.00120   0.07228   0.22850  -0.00257   0.00273
  312 O9      .Z       -0.00000   0.00000   0.00020   0.01682  -0.00097
  313 O9      .X       -0.00000  -0.00000  -0.00016   0.00082   0.01425
  314 O9      .Y       -0.00076   0.05300   0.16597  -0.00186   0.00198
  315 O9      .Z       -0.00000  -0.00000   0.00017   0.01425  -0.00082
  316 O9      .X       -0.00000   0.00000  -0.00007   0.00036   0.00620
  317 O9      .Y       -0.00005   0.02036   0.06889  -0.00077   0.00082
  318 O9      .Z       -0.00000   0.00000   0.00007   0.00620  -0.00036
  319 O9      .XX       0.00002  -0.00093  -0.00310   0.00003  -0.00004
  320 O9      .YY      -0.00007   0.00186   0.00619  -0.00007   0.00007
  321 O9      .ZZ       0.00005  -0.00093  -0.00310   0.00003  -0.00004
  322 O9      .XY      -0.00000   0.00000   0.00001  -0.00003  -0.00056
  323 O9      .XZ      -0.00000   0.00000  -0.00000  -0.00000   0.00000
  324 O9      .YZ      -0.00000  -0.00000   0.00001   0.00056  -0.00003
  325 O9      .XX       0.00009  -0.00228  -0.00528   0.00006  -0.00006
  326 O9      .YY      -0.00010   0.00456   0.01057  -0.00012   0.00013
  327 O9      .ZZ       0.00001  -0.00228  -0.00528   0.00006  -0.00006
  328 O9      .XY       0.00000   0.00000   0.00002  -0.00010  -0.00176
  329 O9      .XZ       0.00000  -0.00000  -0.00000  -0.00000  -0.00000
  330 O9      .YZ      -0.00000   0.00000   0.00002   0.00176  -0.00010
  331 O9      .XXX     -0.00000   0.00000   0.00000  -0.00002  -0.00027
  332 O9      .YYY      0.00002  -0.00080  -0.00175   0.00002  -0.00002
  333 O9      .ZZZ     -0.00000   0.00000  -0.00000  -0.00018   0.00001
  334 O9      .XYY     -0.00000   0.00000   0.00000  -0.00002  -0.00032
  335 O9      .XXY      0.00001  -0.00080  -0.00176   0.00002  -0.00002
  336 O9      .XXZ     -0.00000  -0.00000  -0.00000  -0.00032   0.00002
  337 O9      .XZZ     -0.00000  -0.00000   0.00000  -0.00000  -0.00008
  338 O9      .YZZ      0.00003  -0.00054  -0.00117   0.00001  -0.00001
  339 O9      .YYZ     -0.00000  -0.00000  -0.00000  -0.00032   0.00002
  340 O9      .XYZ      0.00000  -0.00000   0.00000   0.00000   0.00000
  341 O10     .S        0.04568   0.01840   0.00042  -0.00214  -0.03722
  342 O10     .S        0.10775   0.04399   0.00100  -0.00512  -0.08898
  343 O10     .S       -0.15791  -0.06700  -0.00149   0.00761   0.13230
  344 O10     .S       -0.19071  -0.10408  -0.00256   0.01306   0.22710
  345 O10     .S       -0.04892  -0.07280  -0.00164   0.00836   0.14531
  346 O10     .X       -0.06666   0.07228   0.00257  -0.01312  -0.22814
  347 O10     .Y        0.00000   0.00000  -0.01684   0.00019  -0.00020
  348 O10     .Z       -0.00000   0.00000   0.00020   0.01682  -0.00097
  349 O10     .X       -0.04189   0.05300   0.00187  -0.00953  -0.16571
  350 O10     .Y        0.00000   0.00000  -0.01427   0.00016  -0.00017
  351 O10     .Z       -0.00000  -0.00000   0.00017   0.01425  -0.00082
  352 O10     .X       -0.00280   0.02036   0.00078  -0.00396  -0.06878
  353 O10     .Y       -0.00000   0.00000  -0.00621   0.00007  -0.00007
  354 O10     .Z       -0.00000   0.00000   0.00007   0.00620  -0.00036
  355 O10     .XX      -0.00382   0.00186   0.00007  -0.00036  -0.00618
  356 O10     .YY       0.00190  -0.00093  -0.00003   0.00018   0.00309
  357 O10     .ZZ       0.00192  -0.00093  -0.00003   0.00018   0.00309
  358 O10     .XY      -0.00000   0.00000   0.00057  -0.00001   0.00001
  359 O10     .XZ      -0.00000  -0.00000   0.00001   0.00056  -0.00003
  360 O10     .YZ      -0.00000  -0.00000   0.00000   0.00000  -0.00000
  361 O10     .XX      -0.00529   0.00456   0.00012  -0.00061  -0.01055
  362 O10     .YY       0.00267  -0.00228  -0.00006   0.00030   0.00528
  363 O10     .ZZ       0.00262  -0.00228  -0.00006   0.00030   0.00528
  364 O10     .XY       0.00000  -0.00000   0.00176  -0.00002   0.00002
  365 O10     .XZ      -0.00000   0.00000   0.00002   0.00176  -0.00010
  366 O10     .YZ       0.00000  -0.00000  -0.00000   0.00000   0.00000
  367 O10     .XXX     -0.00030   0.00020   0.00000  -0.00003  -0.00044
  368 O10     .YYY     -0.00000  -0.00000  -0.00018   0.00000  -0.00000
  369 O10     .ZZZ      0.00000   0.00000  -0.00000  -0.00018   0.00001
  370 O10     .XYY     -0.00083   0.00054   0.00001  -0.00007  -0.00117
  371 O10     .XXY     -0.00000  -0.00000  -0.00029   0.00000  -0.00000
  372 O10     .XXZ      0.00000  -0.00000   0.00000   0.00008  -0.00000
  373 O10     .XZZ      0.00084  -0.00054  -0.00001   0.00007   0.00117
  374 O10     .YZZ     -0.00000  -0.00000   0.00008  -0.00000   0.00000
  375 O10     .YYZ      0.00000  -0.00000   0.00000   0.00008  -0.00000
  376 O10     .XYZ     -0.00000  -0.00000  -0.00000   0.00000  -0.00000
  377 O11     .S        0.00082   0.01840  -0.03728   0.00042  -0.00044
  378 O11     .S        0.00194   0.04399  -0.08912   0.00100  -0.00106
  379 O11     .S       -0.00285  -0.06700   0.13251  -0.00149   0.00158
  380 O11     .S       -0.00344  -0.10408   0.22746  -0.00255   0.00271
  381 O11     .S       -0.00088  -0.07280   0.14554  -0.00163   0.00174
  382 O11     .X       -0.00000  -0.00000  -0.00019   0.00097   0.01682
  383 O11     .Y        0.00120  -0.07228   0.22850  -0.00257   0.00273
  384 O11     .Z       -0.00000   0.00000   0.00020   0.01682  -0.00097
  385 O11     .X       -0.00000  -0.00000  -0.00016   0.00082   0.01425
  386 O11     .Y        0.00076  -0.05300   0.16597  -0.00186   0.00198
  387 O11     .Z       -0.00000   0.00000   0.00017   0.01425  -0.00082
  388 O11     .X       -0.00000   0.00000  -0.00007   0.00036   0.00620
  389 O11     .Y        0.00005  -0.02036   0.06889  -0.00077   0.00082
  390 O11     .Z       -0.00000   0.00000   0.00007   0.00620  -0.00036
  391 O11     .XX       0.00002  -0.00093   0.00310  -0.00003   0.00004
[...]
  208 C6      .X       -0.00000  -0.00000   0.05273   0.21318  -2.99315
  209 C6      .Y       -0.00000   0.00000   2.92871   0.64828   0.09776
  210 C6      .Z       -0.00000  -0.00000   0.00000   0.00000  -0.00000
  211 C6      .XX       0.00000  -0.00000  -0.00000   0.00000  -0.00000
  212 C6      .YY      -0.00000  -0.00000   0.00000  -0.00000  -0.00000
  213 C6      .ZZ       0.00000   0.00000   0.00000   0.00000   0.00000
  214 C6      .XY      -0.00592   0.00350  -0.00000   0.00000   0.00000
  215 C6      .XZ      -0.00000  -0.00000  -0.00000  -0.00001   0.00017
  216 C6      .YZ       0.00000  -0.00000  -0.00017  -0.00004  -0.00001
  217 C6      .XX      -0.00000  -0.00000   0.00000  -0.00000  -0.00000
  218 C6      .YY      -0.00000  -0.00000   0.00000   0.00000   0.00000
  219 C6      .ZZ       0.00000   0.00000  -0.00000  -0.00000   0.00000
  220 C6      .XY      -0.49735   0.29389  -0.00000   0.00000   0.00000
  221 C6      .XZ      -0.00000  -0.00000   0.00440   0.01778  -0.24958
  222 C6      .YZ      -0.00000   0.00000   0.24420   0.05406   0.00815
  223 C6      .XXX     -0.00000  -0.00000   0.00009   0.00035  -0.00490
  224 C6      .YYY     -0.00000   0.00000   0.01036   0.00229   0.00035
  225 C6      .ZZZ      0.00000   0.00000  -0.00000  -0.00000   0.00000
  226 C6      .XYY      0.00000   0.00000  -0.00001  -0.00003   0.00036
  227 C6      .XXY     -0.00000   0.00000   0.00712   0.00158   0.00024
  228 C6      .XXZ      0.00000   0.00000  -0.00000  -0.00000   0.00000
  229 C6      .XZZ     -0.00000  -0.00000   0.00024   0.00099  -0.01385
  230 C6      .YZZ     -0.00000   0.00000   0.01355   0.00300   0.00045
  231 C6      .YYZ      0.00000   0.00000  -0.00000  -0.00000   0.00000
  232 C6      .XYZ      0.01640  -0.00969   0.00000  -0.00000  -0.00000
  233 C7      .S       -0.00000  -0.00000   0.00000   0.00000   0.00000
  234 C7      .S       -0.00000  -0.00000   0.00000   0.00000   0.00000
  235 C7      .S        0.00000  -0.00000   0.00000  -0.00000   0.00000
  236 C7      .S       -0.00000   0.00000  -0.00000  -0.00000  -0.00000
  237 C7      .S       -0.00000  -0.00000   0.00000   0.00000  -0.00000
  238 C7      .X       -0.00000  -0.00000   0.00187   0.00756  -0.10620
  239 C7      .Y       -0.00000   0.00000   0.10392   0.02300   0.00347
  240 C7      .Z       -0.00000  -0.00000   0.00000   0.00000  -0.00000
  241 C7      .X       -0.00000  -0.00000   0.00349   0.01410  -0.19795
  242 C7      .Y       -0.00000   0.00000   0.19369   0.04287   0.00647
  243 C7      .Z        0.00000   0.00000   0.00000  -0.00000   0.00000
  244 C7      .X        0.00000   0.00000  -0.05273  -0.21318   2.99315
  245 C7      .Y        0.00000  -0.00000  -2.92871  -0.64828  -0.09776
  246 C7      .Z       -0.00000  -0.00000   0.00000  -0.00000  -0.00000
  247 C7      .XX       0.00000   0.00000  -0.00000  -0.00000  -0.00000
  248 C7      .YY       0.00000   0.00000   0.00000  -0.00000   0.00000
  249 C7      .ZZ      -0.00000  -0.00000  -0.00000   0.00000  -0.00000
  250 C7      .XY       0.00592  -0.00350   0.00000  -0.00000  -0.00000
  251 C7      .XZ      -0.00000  -0.00000  -0.00000  -0.00001   0.00017
  252 C7      .YZ       0.00000  -0.00000  -0.00017  -0.00004  -0.00001
  253 C7      .XX       0.00000   0.00000   0.00000  -0.00000   0.00000
  254 C7      .YY       0.00000  -0.00000   0.00000   0.00000  -0.00000
  255 C7      .ZZ      -0.00000  -0.00000  -0.00000   0.00000  -0.00000
  256 C7      .XY       0.49735  -0.29389   0.00000   0.00000  -0.00000
  257 C7      .XZ      -0.00000  -0.00000   0.00440   0.01778  -0.24958
  258 C7      .YZ      -0.00000   0.00000   0.24420   0.05406   0.00815
  259 C7      .XXX      0.00000   0.00000  -0.00009  -0.00035   0.00490
  260 C7      .YYY      0.00000  -0.00000  -0.01036  -0.00229  -0.00035
  261 C7      .ZZZ      0.00000   0.00000   0.00000  -0.00000   0.00000
  262 C7      .XYY     -0.00000  -0.00000   0.00001   0.00003  -0.00036
  263 C7      .XXY      0.00000  -0.00000  -0.00712  -0.00158  -0.00024
  264 C7      .XXZ      0.00000   0.00000   0.00000  -0.00000   0.00000
  265 C7      .XZZ      0.00000   0.00000  -0.00024  -0.00099   0.01385
  266 C7      .YZZ      0.00000  -0.00000  -0.01355  -0.00300  -0.00045
  267 C7      .YYZ      0.00000   0.00000   0.00000  -0.00000   0.00000
  268 C7      .XYZ      0.01640  -0.00969   0.00000  -0.00000  -0.00000
  269 O8      .S        0.00000   0.00000  -0.00000   0.00000  -0.00000
  270 O8      .S        0.00000   0.00000  -0.00000   0.00000  -0.00000
  271 O8      .S       -0.00000  -0.00000   0.00000  -0.00000   0.00000
  272 O8      .S        0.00000  -0.00000  -0.00000   0.00000  -0.00000
  273 O8      .S        0.00000   0.00000  -0.00000   0.00000  -0.00000
  274 O8      .X        0.00000   0.00000  -0.00000   0.00000  -0.00000
  275 O8      .Y        0.00000  -0.00000  -0.01505   0.06730   0.00453
  276 O8      .Z        0.00000   0.00000  -0.00121  -0.00491   0.06893
  277 O8      .X       -0.00000  -0.00000   0.00000  -0.00000   0.00000
  278 O8      .Y        0.00000  -0.00000  -0.05552   0.24831   0.01671
  279 O8      .Z        0.00000   0.00000  -0.00448  -0.01811   0.25430
  280 O8      .X       -0.00000  -0.00000   0.00000  -0.00000   0.00000
  281 O8      .Y       -0.00000   0.00000   0.35144  -1.57175  -0.10575
  282 O8      .Z       -0.00000  -0.00000   0.02836   0.11465  -1.60970
  283 O8      .XX      -0.00000  -0.00000  -0.00000  -0.00000  -0.00000
  284 O8      .YY      -0.00000  -0.00000  -0.00000   0.00000   0.00000
  285 O8      .ZZ       0.00000   0.00000   0.00000  -0.00000  -0.00000
  286 O8      .XY       0.00000  -0.00000  -0.00228   0.01021   0.00069
  287 O8      .XZ      -0.00000  -0.00000   0.00018   0.00074  -0.01046
  288 O8      .YZ       0.00004   0.00445  -0.00000  -0.00000  -0.00000
  289 O8      .XX       0.00000   0.00000  -0.00000   0.00000  -0.00000
  290 O8      .YY      -0.00000  -0.00000   0.00000  -0.00000   0.00000
  291 O8      .ZZ      -0.00000  -0.00000   0.00000  -0.00000   0.00000
  292 O8      .XY       0.00000  -0.00000   0.00048  -0.00215  -0.00014
  293 O8      .XZ       0.00000   0.00000  -0.00004  -0.00016   0.00220
  294 O8      .YZ       0.00088   0.08682  -0.00000  -0.00000  -0.00000
  295 O8      .XXX     -0.00000  -0.00000   0.00000  -0.00000   0.00000
  296 O8      .YYY     -0.00000   0.00000   0.00053  -0.00238  -0.00016
  297 O8      .ZZZ      0.00000   0.00000  -0.00004  -0.00017   0.00244
  298 O8      .XYY     -0.00000  -0.00000   0.00000  -0.00000   0.00000
  299 O8      .XXY     -0.00000   0.00000   0.00096  -0.00430  -0.00029
  300 O8      .XXZ     -0.00000  -0.00000   0.00004   0.00016  -0.00228
  301 O8      .XZZ      0.00000   0.00000  -0.00000   0.00000  -0.00000
  302 O8      .YZZ      0.00000  -0.00000  -0.00050   0.00223   0.00015
  303 O8      .YYZ     -0.00000  -0.00000   0.00004   0.00016  -0.00228
  304 O8      .XYZ     -0.00001  -0.00137   0.00000   0.00000   0.00000
  305 O9      .S       -0.00000   0.00000  -0.00000  -0.00000  -0.00000
  306 O9      .S       -0.00000   0.00000  -0.00000  -0.00000  -0.00000
  307 O9      .S        0.00000  -0.00000  -0.00000   0.00000   0.00000
  308 O9      .S       -0.00000  -0.00000   0.00000  -0.00000  -0.00000
  309 O9      .S       -0.00000  -0.00000   0.00000  -0.00000  -0.00000
  310 O9      .X        0.00000  -0.00000  -0.01505   0.06730   0.00453
  311 O9      .Y        0.00000  -0.00000   0.00000   0.00000   0.00000
  312 O9      .Z       -0.00000   0.00000   0.06744   0.01493   0.00225
  313 O9      .X        0.00000  -0.00000  -0.05552   0.24831   0.01671
  314 O9      .Y       -0.00000  -0.00000   0.00000  -0.00000  -0.00000
  315 O9      .Z       -0.00000   0.00000   0.24883   0.05508   0.00831
  316 O9      .X       -0.00000   0.00000   0.35144  -1.57175  -0.10575
  317 O9      .Y       -0.00000   0.00000  -0.00000  -0.00000  -0.00000
  318 O9      .Z        0.00000  -0.00000  -1.57505  -0.34864  -0.05258
  319 O9      .XX      -0.00000   0.00000   0.00000  -0.00000  -0.00000
  320 O9      .YY      -0.00000  -0.00000   0.00000   0.00000   0.00000
  321 O9      .ZZ       0.00000  -0.00000  -0.00000  -0.00000   0.00000
  322 O9      .XY      -0.00000   0.00000   0.00228  -0.01021  -0.00069
  323 O9      .XZ       0.00387   0.00218  -0.00000  -0.00000  -0.00000
  324 O9      .YZ      -0.00000   0.00000   0.01023   0.00227   0.00034
  325 O9      .XX       0.00000   0.00000  -0.00000   0.00000   0.00000
  326 O9      .YY      -0.00000   0.00000   0.00000  -0.00000  -0.00000
  327 O9      .ZZ       0.00000  -0.00000  -0.00000   0.00000   0.00000
  328 O9      .XY       0.00000  -0.00000  -0.00048   0.00215   0.00014
  329 O9      .XZ       0.07563   0.04265  -0.00000  -0.00000  -0.00000
  330 O9      .YZ       0.00000   0.00000  -0.00215  -0.00048  -0.00007
  331 O9      .XXX      0.00000  -0.00000  -0.00109   0.00487   0.00033
  332 O9      .YYY     -0.00000  -0.00000  -0.00000   0.00000   0.00000
  333 O9      .ZZZ     -0.00000   0.00000   0.00238   0.00053   0.00008
  334 O9      .XYY      0.00000  -0.00000  -0.00121   0.00542   0.00036
  335 O9      .XXY     -0.00000  -0.00000  -0.00000   0.00000   0.00000
  336 O9      .XXZ     -0.00000   0.00000   0.00543   0.00120   0.00018
  337 O9      .XZZ      0.00000  -0.00000  -0.00050   0.00223   0.00015
  338 O9      .YZZ     -0.00000  -0.00000  -0.00000   0.00000  -0.00000
  339 O9      .YYZ     -0.00000   0.00000   0.00543   0.00120   0.00018
  340 O9      .XYZ      0.00119   0.00067  -0.00000  -0.00000  -0.00000
  341 O10     .S       -0.00000  -0.00000   0.00000  -0.00000   0.00000
  342 O10     .S       -0.00000  -0.00000   0.00000  -0.00000   0.00000
  343 O10     .S        0.00000   0.00000  -0.00000   0.00000  -0.00000
  344 O10     .S       -0.00000  -0.00000   0.00000  -0.00000  -0.00000
  345 O10     .S       -0.00000  -0.00000   0.00000  -0.00000   0.00000
  346 O10     .X        0.00000   0.00000  -0.00000   0.00000  -0.00000
  347 O10     .Y       -0.00000   0.00000   0.01505  -0.06730  -0.00453
  348 O10     .Z       -0.00000  -0.00000   0.00121   0.00491  -0.06893
  349 O10     .X       -0.00000  -0.00000   0.00000  -0.00000  -0.00000
  350 O10     .Y       -0.00000   0.00000   0.05552  -0.24831  -0.01671
  351 O10     .Z       -0.00000  -0.00000   0.00448   0.01811  -0.25430
  352 O10     .X       -0.00000  -0.00000   0.00000  -0.00000   0.00000
  353 O10     .Y        0.00000  -0.00000  -0.35144   1.57175   0.10575
  354 O10     .Z        0.00000   0.00000  -0.02836  -0.11465   1.60970
  355 O10     .XX       0.00000  -0.00000  -0.00000   0.00000  -0.00000
  356 O10     .YY       0.00000   0.00000   0.00000  -0.00000  -0.00000
  357 O10     .ZZ      -0.00000  -0.00000   0.00000  -0.00000   0.00000
  358 O10     .XY       0.00000  -0.00000  -0.00228   0.01021   0.00069
  359 O10     .XZ      -0.00000  -0.00000   0.00018   0.00074  -0.01046
  360 O10     .YZ      -0.00004  -0.00445   0.00000  -0.00000   0.00000
  361 O10     .XX      -0.00000  -0.00000   0.00000  -0.00000   0.00000
  362 O10     .YY       0.00000   0.00000  -0.00000   0.00000  -0.00000
  363 O10     .ZZ       0.00000   0.00000  -0.00000   0.00000   0.00000
  364 O10     .XY       0.00000  -0.00000   0.00048  -0.00215  -0.00014
  365 O10     .XZ       0.00000   0.00000  -0.00004  -0.00016   0.00220
  366 O10     .YZ      -0.00088  -0.08682   0.00000  -0.00000   0.00000
  367 O10     .XXX     -0.00000  -0.00000   0.00000  -0.00000   0.00000
  368 O10     .YYY      0.00000  -0.00000  -0.00053   0.00238   0.00016
  369 O10     .ZZZ     -0.00000  -0.00000   0.00004   0.00017  -0.00244
  370 O10     .XYY     -0.00000  -0.00000   0.00000  -0.00000   0.00000
  371 O10     .XXY      0.00000  -0.00000  -0.00096   0.00430   0.00029
  372 O10     .XXZ      0.00000   0.00000  -0.00004  -0.00016   0.00228
  373 O10     .XZZ      0.00000   0.00000  -0.00000   0.00000  -0.00000
  374 O10     .YZZ     -0.00000   0.00000   0.00050  -0.00223  -0.00015
  375 O10     .YYZ      0.00000   0.00000  -0.00004  -0.00016   0.00228
  376 O10     .XYZ     -0.00001  -0.00137   0.00000  -0.00000   0.00000
  377 O11     .S       -0.00000  -0.00000   0.00000   0.00000   0.00000
  378 O11     .S       -0.00000  -0.00000   0.00000   0.00000   0.00000
  379 O11     .S        0.00000   0.00000  -0.00000  -0.00000   0.00000
  380 O11     .S       -0.00000  -0.00000   0.00000   0.00000  -0.00000
  381 O11     .S       -0.00000   0.00000  -0.00000  -0.00000  -0.00000
  382 O11     .X       -0.00000   0.00000   0.01505  -0.06730  -0.00453
  383 O11     .Y       -0.00000  -0.00000   0.00000   0.00000   0.00000
  384 O11     .Z        0.00000  -0.00000  -0.06744  -0.01493  -0.00225
  385 O11     .X       -0.00000   0.00000   0.05552  -0.24831  -0.01671
  386 O11     .Y        0.00000  -0.00000   0.00000   0.00000   0.00000
  387 O11     .Z        0.00000  -0.00000  -0.24883  -0.05508  -0.00831
  388 O11     .X        0.00000  -0.00000  -0.35144   1.57175   0.10575
  389 O11     .Y        0.00000   0.00000  -0.00000  -0.00000  -0.00000
  390 O11     .Z       -0.00000   0.00000   1.57505   0.34864   0.05258
  391 O11     .XX       0.00000  -0.00000  -0.00000  -0.00000  -0.00000
  392 O11     .YY      -0.00000  -0.00000   0.00000   0.00000   0.00000
  393 O11     .ZZ      -0.00000   0.00000   0.00000   0.00000   0.00000
  394 O11     .XY      -0.00000   0.00000   0.00228  -0.01021  -0.00069
  395 O11     .XZ      -0.00387  -0.00218   0.00000   0.00000   0.00000
  396 O11     .YZ      -0.00000   0.00000   0.01023   0.00227   0.00034
  397 O11     .XX       0.00000  -0.00000  -0.00000  -0.00000  -0.00000
  398 O11     .YY      -0.00000  -0.00000   0.00000   0.00000   0.00000
  399 O11     .ZZ       0.00000   0.00000   0.00000  -0.00000   0.00000
  400 O11     .XY       0.00000  -0.00000  -0.00048   0.00215   0.00014
  401 O11     .XZ      -0.07563  -0.04265   0.00000   0.00000   0.00000
  402 O11     .YZ       0.00000   0.00000  -0.00215  -0.00048  -0.00007
  403 O11     .XXX     -0.00000   0.00000   0.00109  -0.00487  -0.00033
  404 O11     .YYY      0.00000  -0.00000  -0.00000   0.00000  -0.00000
  405 O11     .ZZZ      0.00000  -0.00000  -0.00238  -0.00053  -0.00008
  406 O11     .XYY     -0.00000   0.00000   0.00121  -0.00542  -0.00036
  407 O11     .XXY      0.00000  -0.00000  -0.00000   0.00000  -0.00000
  408 O11     .XXZ      0.00000  -0.00000  -0.00543  -0.00120  -0.00018
  409 O11     .XZZ     -0.00000   0.00000   0.00050  -0.00223  -0.00015
  410 O11     .YZZ      0.00000  -0.00000  -0.00000   0.00000   0.00000
  411 O11     .YYZ      0.00000  -0.00000  -0.00543  -0.00120  -0.00018
  412 O11     .XYZ      0.00119   0.00067  -0.00000  -0.00000  -0.00000
  413 O12     .S       -0.00000  -0.00000   0.00000  -0.00000  -0.00000
  414 O12     .S       -0.00000  -0.00000   0.00000  -0.00000  -0.00000
  415 O12     .S        0.00000   0.00000  -0.00000  -0.00000   0.00000
  416 O12     .S       -0.00000  -0.00000   0.00000   0.00000  -0.00000
  417 O12     .S       -0.00000  -0.00000  -0.00000  -0.00000  -0.00000
  418 O12     .X       -0.00000  -0.00000   0.00121   0.00491  -0.06893
  419 O12     .Y       -0.00000   0.00000   0.06744   0.01493   0.00225
  420 O12     .Z       -0.00000  -0.00000   0.00000  -0.00000  -0.00000
  421 O12     .X       -0.00000  -0.00000   0.00448   0.01811  -0.25430
  422 O12     .Y       -0.00000   0.00000   0.24883   0.05508   0.00831
  423 O12     .Z        0.00000   0.00000   0.00000   0.00000   0.00000
  424 O12     .X        0.00000   0.00000  -0.02836  -0.11465   1.60970
  425 O12     .Y        0.00000  -0.00000  -1.57505  -0.34864  -0.05258
  426 O12     .Z        0.00000   0.00000  -0.00000  -0.00000   0.00000
  427 O12     .XX       0.00000  -0.00000   0.00000  -0.00000  -0.00000
  428 O12     .YY      -0.00000   0.00000  -0.00000   0.00000   0.00000
  429 O12     .ZZ       0.00000   0.00000   0.00000  -0.00000   0.00000
  430 O12     .XY      -0.00383   0.00226  -0.00000   0.00000   0.00000
  431 O12     .XZ       0.00000   0.00000  -0.00018  -0.00074   0.01046
  432 O12     .YZ       0.00000  -0.00000  -0.01023  -0.00227  -0.00034
  433 O12     .XX       0.00000   0.00000  -0.00000   0.00000   0.00000
  434 O12     .YY       0.00000   0.00000  -0.00000  -0.00000   0.00000
  435 O12     .ZZ      -0.00000  -0.00000   0.00000  -0.00000  -0.00000
  436 O12     .XY      -0.07475   0.04417  -0.00000   0.00000   0.00000
  437 O12     .XZ       0.00000   0.00000   0.00004   0.00016  -0.00220
  438 O12     .YZ      -0.00000   0.00000   0.00215   0.00048   0.00007
  439 O12     .XXX      0.00000   0.00000  -0.00007  -0.00027   0.00377
  440 O12     .YYY      0.00000  -0.00000  -0.00238  -0.00053  -0.00008
  441 O12     .ZZZ     -0.00000   0.00000   0.00000  -0.00000   0.00000
  442 O12     .XYY      0.00000   0.00000  -0.00004  -0.00016   0.00228
  443 O12     .XXY      0.00000  -0.00000  -0.00048  -0.00011  -0.00002
  444 O12     .XXZ     -0.00000   0.00000   0.00000  -0.00000   0.00000
  445 O12     .XZZ      0.00000   0.00000  -0.00010  -0.00040   0.00555
  446 O12     .YZZ      0.00000  -0.00000  -0.00543  -0.00120  -0.00018
  447 O12     .YYZ     -0.00000   0.00000   0.00000  -0.00000   0.00000
  448 O12     .XYZ     -0.00118   0.00070  -0.00000   0.00000   0.00000
  449 O13     .S        0.00000   0.00000   0.00000  -0.00000   0.00000
  450 O13     .S        0.00000   0.00000   0.00000  -0.00000   0.00000
  451 O13     .S       -0.00000  -0.00000   0.00000   0.00000  -0.00000
  452 O13     .S       -0.00000  -0.00000   0.00000  -0.00000   0.00000
  453 O13     .S        0.00000   0.00000   0.00000  -0.00000   0.00000
  454 O13     .X        0.00000   0.00000  -0.00121  -0.00491   0.06893
  455 O13     .Y        0.00000  -0.00000  -0.06744  -0.01493  -0.00225
  456 O13     .Z       -0.00000  -0.00000   0.00000   0.00000  -0.00000
  457 O13     .X        0.00000   0.00000  -0.00448  -0.01811   0.25430
  458 O13     .Y        0.00000  -0.00000  -0.24883  -0.05508  -0.00831
  459 O13     .Z       -0.00000  -0.00000   0.00000   0.00000   0.00000
  460 O13     .X       -0.00000  -0.00000   0.02836   0.11465  -1.60970
  461 O13     .Y       -0.00000   0.00000   1.57505   0.34864   0.05258
  462 O13     .Z        0.00000   0.00000  -0.00000  -0.00000   0.00000
  463 O13     .XX       0.00000   0.00000   0.00000  -0.00000   0.00000
  464 O13     .YY      -0.00000  -0.00000  -0.00000   0.00000  -0.00000
  465 O13     .ZZ      -0.00000  -0.00000   0.00000  -0.00000  -0.00000
  466 O13     .XY       0.00383  -0.00226   0.00000   0.00000  -0.00000
  467 O13     .XZ       0.00000   0.00000  -0.00018  -0.00074   0.01046
  468 O13     .YZ       0.00000  -0.00000  -0.01023  -0.00227  -0.00034
  469 O13     .XX      -0.00000  -0.00000  -0.00000   0.00000  -0.00000
  470 O13     .YY      -0.00000  -0.00000  -0.00000   0.00000  -0.00000
  471 O13     .ZZ       0.00000   0.00000   0.00000  -0.00000   0.00000
  472 O13     .XY       0.07475  -0.04417   0.00000   0.00000  -0.00000
  473 O13     .XZ       0.00000   0.00000   0.00004   0.00016  -0.00220
  474 O13     .YZ      -0.00000   0.00000   0.00215   0.00048   0.00007
  475 O13     .XXX     -0.00000  -0.00000   0.00007   0.00027  -0.00377
  476 O13     .YYY     -0.00000   0.00000   0.00238   0.00053   0.00008
  477 O13     .ZZZ      0.00000   0.00000   0.00000   0.00000   0.00000
  478 O13     .XYY     -0.00000  -0.00000   0.00004   0.00016  -0.00228
  479 O13     .XXY     -0.00000   0.00000   0.00048   0.00011   0.00002
  480 O13     .XXZ      0.00000   0.00000   0.00000   0.00000   0.00000
  481 O13     .XZZ     -0.00000  -0.00000   0.00010   0.00040  -0.00555
  482 O13     .YZZ     -0.00000   0.00000   0.00543   0.00120   0.00018
  483 O13     .YYZ      0.00000   0.00000   0.00000   0.00000   0.00000
  484 O13     .XYZ     -0.00118   0.00070  -0.00000  -0.00000   0.00000
