 Entering Gaussian System

 Standard orientation:



 -------------------------------------------------------
     1  24    0     0.000000     0.000000     0.000000
     2   6    0     1.897809     0.000000     0.000000
     3   6    0     0.000000    -1.897809     0.000000
     4   6    0    -1.897809     0.000000     0.000000
     5   6    0     0.000000     1.897809     0.000000
     6   6    0     0.000000     0.000000     1.897809
     7   6    0     0.000000     0.000000    -1.897809
     8   8    0     3.034617     0.000000     0.000000
     9   8    0     0.000000    -3.034617     0.000000
    10   8    0    -3.034617     0.000000     0.000000
    11   8    0     0.000000     3.034617     0.000000
    12   8    0     0.000000     0.000000     3.034617
    13   8    0     0.000000     0.000000    -3.034617
 -------------------------------------------------------

 AO basis set (Overlap normalization):
 Atom Cr1     Shell     1 S    8
   2.5447780700e+05   2.4290477640e-04
   3.8131797050e+04   1.8843523610e-03
   8.6752930610e+03   9.8009584390e-03
   2.4550099850e+03   3.9825008650e-02
   7.9916217790e+02   1.2940543730e-01
   2.8690021490e+02   3.0629001810e-01
   1.1125413230e+02   4.3462834980e-01
   4.3864152640e+01   2.2469562870e-01
 Atom Cr1     Shell     2 S    4
   2.7932669170e+02  -2.4363357910e-02
   8.6274732380e+01  -1.1511495390e-01
   1.3555756110e+01   5.5092266280e-01
   5.6978112750e+00   5.3611354690e-01
 Atom Cr1     Shell     3 S    2
   8.5636582620e+00  -3.7123017690e-01
   1.3988296770e+00   1.1681169460e+00
 Atom Cr1     Shell     4 S    1
   5.7288171120e-01   1.0000000000e+00
 Atom Cr1     Shell     5 S    1
   9.0096171320e-02   1.0000000000e+00
 Atom Cr1     Shell     6 S    1
   3.4125885130e-02   1.0000000000e+00
 Atom Cr1     Shell     7 P    6
   1.3064398860e+03   2.8292800650e-03
   3.0925311440e+02   2.2776629200e-02
   9.8996273960e+01   1.0564561900e-01
   3.6756916450e+01   2.9949944920e-01
   1.4566657080e+01   4.7706245360e-01
   5.8739937430e+00   2.7654234380e-01
 Atom Cr1     Shell     8 P    3
   2.2890999700e+01  -1.9412106080e-02
   3.0855001820e+00   3.8618875820e-01
   1.2132329120e+00   6.7623908900e-01
 Atom Cr1     Shell     9 P    1
   4.4931680700e-01   1.0000000000e+00
 Atom Cr1     Shell    10 P    1
   1.2067500000e-01   1.0000000000e+00
 Atom Cr1     Shell    11 D    4
   4.3720074480e+01   2.2093259260e-02
   1.2391242650e+01   1.2801438770e-01
   4.2639442010e+00   3.8652910280e-01
   1.5525221790e+00   6.4103301440e-01
 Atom Cr1     Shell    12 D    1
   5.3761929490e-01   1.0000000000e+00
 Atom Cr1     Shell    13 D    1
   1.6493173070e-01   1.0000000000e+00
 Atom Cr1     Shell    14 D    1
   5.1000000000e-02   1.0000000000e+00
 Atom Cr1     Shell    15 F    1
   1.1470000000e+00   1.0000000000e+00
 Atom  C2     Shell    16 S    6
   1.3575349680e+04   6.0645503600e-04
   2.0352333680e+03   4.6979088880e-03
   4.6322562360e+02   2.4332477650e-02
   1.3120019600e+02   9.7399968310e-02
   4.2853015890e+01   3.0195584250e-01
   1.5584185770e+01   6.6233609140e-01
 Atom  C2     Shell    17 S    2
   6.2067138510e+00   6.5595308540e-01
   2.5764896530e+00   3.7585633290e-01
 Atom  C2     Shell    18 S    1
   5.7696339420e-01   1.0000000000e+00
 Atom  C2     Shell    19 S    1
   2.2972831360e-01   1.0000000000e+00
 Atom  C2     Shell    20 S    1
   9.5164440030e-02   1.0000000000e+00
 Atom  C2     Shell    21 P    4
   3.4697232240e+01   1.1327220000e-02
   7.9582622830e+00   7.6169659200e-02
   2.3780826880e+00   3.0192252200e-01
   8.1433208180e-01   7.2785027350e-01
 Atom  C2     Shell    22 P    1
   2.8887547250e-01   1.0000000000e+00
 Atom  C2     Shell    23 P    1
   1.0056823670e-01   1.0000000000e+00
 Atom  C2     Shell    24 D    1
   1.0970000000e+00   1.0000000000e+00
 Atom  C2     Shell    25 D    1
   3.1800000000e-01   1.0000000000e+00
 Atom  C2     Shell    26 F    1
   7.6100000000e-01   1.0000000000e+00
 Atom  C3     Shell    27 S    6
   1.3575349680e+04   6.0645503600e-04
   2.0352333680e+03   4.6979088880e-03
   4.6322562360e+02   2.4332477650e-02
   1.3120019600e+02   9.7399968310e-02
   4.2853015890e+01   3.0195584250e-01
   1.5584185770e+01   6.6233609140e-01
 Atom  C3     Shell    28 S    2
   6.2067138510e+00   6.5595308540e-01
   2.5764896530e+00   3.7585633290e-01
 Atom  C3     Shell    29 S    1
   5.7696339420e-01   1.0000000000e+00
 Atom  C3     Shell    30 S    1
   2.2972831360e-01   1.0000000000e+00
 Atom  C3     Shell    31 S    1
   9.5164440030e-02   1.0000000000e+00
 Atom  C3     Shell    32 P    4
   3.4697232240e+01   1.1327220000e-02
   7.9582622830e+00   7.6169659200e-02
   2.3780826880e+00   3.0192252200e-01
   8.1433208180e-01   7.2785027350e-01
 Atom  C3     Shell    33 P    1
   2.8887547250e-01   1.0000000000e+00
 Atom  C3     Shell    34 P    1
   1.0056823670e-01   1.0000000000e+00
 Atom  C3     Shell    35 D    1
   1.0970000000e+00   1.0000000000e+00
 Atom  C3     Shell    36 D    1
   3.1800000000e-01   1.0000000000e+00
 Atom  C3     Shell    37 F    1
   7.6100000000e-01   1.0000000000e+00
 Atom  C4     Shell    38 S    6
   1.3575349680e+04   6.0645503600e-04
   2.0352333680e+03   4.6979088880e-03
   4.6322562360e+02   2.4332477650e-02
   1.3120019600e+02   9.7399968310e-02
   4.2853015890e+01   3.0195584250e-01
   1.5584185770e+01   6.6233609140e-01
 Atom  C4     Shell    39 S    2
   6.2067138510e+00   6.5595308540e-01
   2.5764896530e+00   3.7585633290e-01
 Atom  C4     Shell    40 S    1
   5.7696339420e-01   1.0000000000e+00
 Atom  C4     Shell    41 S    1
   2.2972831360e-01   1.0000000000e+00
 Atom  C4     Shell    42 S    1
   9.5164440030e-02   1.0000000000e+00
 Atom  C4     Shell    43 P    4
   3.4697232240e+01   1.1327220000e-02
   7.9582622830e+00   7.6169659200e-02
   2.3780826880e+00   3.0192252200e-01
   8.1433208180e-01   7.2785027350e-01
 Atom  C4     Shell    44 P    1
   2.8887547250e-01   1.0000000000e+00
 Atom  C4     Shell    45 P    1
   1.0056823670e-01   1.0000000000e+00
 Atom  C4     Shell    46 D    1
   1.0970000000e+00   1.0000000000e+00
 Atom  C4     Shell    47 D    1
   3.1800000000e-01   1.0000000000e+00
 Atom  C4     Shell    48 F    1
   7.6100000000e-01   1.0000000000e+00
 Atom  C5     Shell    49 S    6
   1.3575349680e+04   6.0645503600e-04
   2.0352333680e+03   4.6979088880e-03
   4.6322562360e+02   2.4332477650e-02
   1.3120019600e+02   9.7399968310e-02
   4.2853015890e+01   3.0195584250e-01
   1.5584185770e+01   6.6233609140e-01
 Atom  C5     Shell    50 S    2
   6.2067138510e+00   6.5595308540e-01
   2.5764896530e+00   3.7585633290e-01
 Atom  C5     Shell    51 S    1
   5.7696339420e-01   1.0000000000e+00
 Atom  C5     Shell    52 S    1
   2.2972831360e-01   1.0000000000e+00
 Atom  C5     Shell    53 S    1
   9.5164440030e-02   1.0000000000e+00
 Atom  C5     Shell    54 P    4
   3.4697232240e+01   1.1327220000e-02
   7.9582622830e+00   7.6169659200e-02
   2.3780826880e+00   3.0192252200e-01
   8.1433208180e-01   7.2785027350e-01
 Atom  C5     Shell    55 P    1
   2.8887547250e-01   1.0000000000e+00
 Atom  C5     Shell    56 P    1
   1.0056823670e-01   1.0000000000e+00
 Atom  C5     Shell    57 D    1
   1.0970000000e+00   1.0000000000e+00
 Atom  C5     Shell    58 D    1
   3.1800000000e-01   1.0000000000e+00
 Atom  C5     Shell    59 F    1
   7.6100000000e-01   1.0000000000e+00
 Atom  C6     Shell    60 S    6
   1.3575349680e+04   6.0645503600e-04
   2.0352333680e+03   4.6979088880e-03
   4.6322562360e+02   2.4332477650e-02
   1.3120019600e+02   9.7399968310e-02
   4.2853015890e+01   3.0195584250e-01
   1.5584185770e+01   6.6233609140e-01
 Atom  C6     Shell    61 S    2
   6.2067138510e+00   6.5595308540e-01
   2.5764896530e+00   3.7585633290e-01
 Atom  C6     Shell    62 S    1
   5.7696339420e-01   1.0000000000e+00
 Atom  C6     Shell    63 S    1
   2.2972831360e-01   1.0000000000e+00
 Atom  C6     Shell    64 S    1
   9.5164440030e-02   1.0000000000e+00
 Atom  C6     Shell    65 P    4
   3.4697232240e+01   1.1327220000e-02
   7.9582622830e+00   7.6169659200e-02
   2.3780826880e+00   3.0192252200e-01
   8.1433208180e-01   7.2785027350e-01
 Atom  C6     Shell    66 P    1
   2.8887547250e-01   1.0000000000e+00
 Atom  C6     Shell    67 P    1
   1.0056823670e-01   1.0000000000e+00
 Atom  C6     Shell    68 D    1
   1.0970000000e+00   1.0000000000e+00
 Atom  C6     Shell    69 D    1
   3.1800000000e-01   1.0000000000e+00
 Atom  C6     Shell    70 F    1
   7.6100000000e-01   1.0000000000e+00
 Atom  C7     Shell    71 S    6
   1.3575349680e+04   6.0645503600e-04
   2.0352333680e+03   4.6979088880e-03
   4.6322562360e+02   2.4332477650e-02
   1.3120019600e+02   9.7399968310e-02
   4.2853015890e+01   3.0195584250e-01
   1.5584185770e+01   6.6233609140e-01
 Atom  C7     Shell    72 S    2
   6.2067138510e+00   6.5595308540e-01
   2.5764896530e+00   3.7585633290e-01
 Atom  C7     Shell    73 S    1
   5.7696339420e-01   1.0000000000e+00
 Atom  C7     Shell    74 S    1
   2.2972831360e-01   1.0000000000e+00
 Atom  C7     Shell    75 S    1
   9.5164440030e-02   1.0000000000e+00
 Atom  C7     Shell    76 P    4
   3.4697232240e+01   1.1327220000e-02
   7.9582622830e+00   7.6169659200e-02
   2.3780826880e+00   3.0192252200e-01
   8.1433208180e-01   7.2785027350e-01
 Atom  C7     Shell    77 P    1
   2.8887547250e-01   1.0000000000e+00
 Atom  C7     Shell    78 P    1
   1.0056823670e-01   1.0000000000e+00
 Atom  C7     Shell    79 D    1
   1.0970000000e+00   1.0000000000e+00
 Atom  C7     Shell    80 D    1
   3.1800000000e-01   1.0000000000e+00
 Atom  C7     Shell    81 F    1
   7.6100000000e-01   1.0000000000e+00
 Atom  O8     Shell    82 S    6
   2.7032382630e+04   5.7227335210e-04
   4.0523871390e+03   4.4353233490e-03
   9.2232722710e+02   2.3020107710e-02
   2.6124070990e+02   9.2822490670e-02
   8.5354641350e+01   2.9378500010e-01
   3.1035035240e+01   6.7401604500e-01
 Atom  O8     Shell    83 S    2
   1.2260860730e+01   6.3839937030e-01
   4.9987076010e+00   3.9534587130e-01
 Atom  O8     Shell    84 S    1
   1.1703108160e+00   1.0000000000e+00
 Atom  O8     Shell    85 S    1
   4.6474740990e-01   1.0000000000e+00
 Atom  O8     Shell    86 S    1
   1.8504536360e-01   1.0000000000e+00
 Atom  O8     Shell    87 P    4
   6.3274954800e+01   1.2018332220e-02
   1.4627049380e+01   8.3005421790e-02
   4.4501223460e+00   3.1991743930e-01
   1.5275799650e+00   7.0715542920e-01
 Atom  O8     Shell    88 P    1
   5.2935117940e-01   1.0000000000e+00
 Atom  O8     Shell    89 P    1
   1.7478421270e-01   1.0000000000e+00
 Atom  O8     Shell    90 D    1
   2.3140000000e+00   1.0000000000e+00
 Atom  O8     Shell    91 D    1
   6.4500000000e-01   1.0000000000e+00
 Atom  O8     Shell    92 F    1
   1.4280000000e+00   1.0000000000e+00
 Atom  O9     Shell    93 S    6
   2.7032382630e+04   5.7227335210e-04
   4.0523871390e+03   4.4353233490e-03
   9.2232722710e+02   2.3020107710e-02
   2.6124070990e+02   9.2822490670e-02
   8.5354641350e+01   2.9378500010e-01
   3.1035035240e+01   6.7401604500e-01
 Atom  O9     Shell    94 S    2
   1.2260860730e+01   6.3839937030e-01
   4.9987076010e+00   3.9534587130e-01
 Atom  O9     Shell    95 S    1
   1.1703108160e+00   1.0000000000e+00
 Atom  O9     Shell    96 S    1
   4.6474740990e-01   1.0000000000e+00
 Atom  O9     Shell    97 S    1
   1.8504536360e-01   1.0000000000e+00
 Atom  O9     Shell    98 P    4
   6.3274954800e+01   1.2018332220e-02
   1.4627049380e+01   8.3005421790e-02
   4.4501223460e+00   3.1991743930e-01
   1.5275799650e+00   7.0715542920e-01
 Atom  O9     Shell    99 P    1
   5.2935117940e-01   1.0000000000e+00
 Atom  O9     Shell   100 P    1
   1.7478421270e-01   1.0000000000e+00
 Atom  O9     Shell   101 D    1
   2.3140000000e+00   1.0000000000e+00
 Atom  O9     Shell   102 D    1
   6.4500000000e-01   1.0000000000e+00
 Atom  O9     Shell   103 F    1
   1.4280000000e+00   1.0000000000e+00
 Atom  O10    Shell   104 S    6
   2.7032382630e+04   5.7227335210e-04
   4.0523871390e+03   4.4353233490e-03
   9.2232722710e+02   2.3020107710e-02
   2.6124070990e+02   9.2822490670e-02
   8.5354641350e+01   2.9378500010e-01
   3.1035035240e+01   6.7401604500e-01
 Atom  O10    Shell   105 S    2
   1.2260860730e+01   6.3839937030e-01
   4.9987076010e+00   3.9534587130e-01
 Atom  O10    Shell   106 S    1
   1.1703108160e+00   1.0000000000e+00
 Atom  O10    Shell   107 S    1
   4.6474740990e-01   1.0000000000e+00
 Atom  O10    Shell   108 S    1
   1.8504536360e-01   1.0000000000e+00
 Atom  O10    Shell   109 P    4
   6.3274954800e+01   1.2018332220e-02
   1.4627049380e+01   8.3005421790e-02
   4.4501223460e+00   3.1991743930e-01
   1.5275799650e+00   7.0715542920e-01
 Atom  O10    Shell   110 P    1
   5.2935117940e-01   1.0000000000e+00
 Atom  O10    Shell   111 P    1
   1.7478421270e-01   1.0000000000e+00
 Atom  O10    Shell   112 D    1
   2.3140000000e+00   1.0000000000e+00
 Atom  O10    Shell   113 D    1
   6.4500000000e-01   1.0000000000e+00
 Atom  O10    Shell   114 F    1
   1.4280000000e+00   1.0000000000e+00
 Atom  O11    Shell   115 S    6
   2.7032382630e+04   5.7227335210e-04
   4.0523871390e+03   4.4353233490e-03
   9.2232722710e+02   2.3020107710e-02
   2.6124070990e+02   9.2822490670e-02
   8.5354641350e+01   2.9378500010e-01
   3.1035035240e+01   6.7401604500e-01
 Atom  O11    Shell   116 S    2
   1.2260860730e+01   6.3839937030e-01
   4.9987076010e+00   3.9534587130e-01
 Atom  O11    Shell   117 S    1
   1.1703108160e+00   1.0000000000e+00
 Atom  O11    Shell   118 S    1
   4.6474740990e-01   1.0000000000e+00
 Atom  O11    Shell   119 S    1
   1.8504536360e-01   1.0000000000e+00
 Atom  O11    Shell   120 P    4
   6.3274954800e+01   1.2018332220e-02
   1.4627049380e+01   8.3005421790e-02
   4.4501223460e+00   3.1991743930e-01
   1.5275799650e+00   7.0715542920e-01
 Atom  O11    Shell   121 P    1
   5.2935117940e-01   1.0000000000e+00
 Atom  O11    Shell   122 P    1
   1.7478421270e-01   1.0000000000e+00
 Atom  O11    Shell   123 D    1
   2.3140000000e+00   1.0000000000e+00
 Atom  O11    Shell   124 D    1
   6.4500000000e-01   1.0000000000e+00
 Atom  O11    Shell   125 F    1
   1.4280000000e+00   1.0000000000e+00
 Atom  O12    Shell   126 S    6
   2.7032382630e+04   5.7227335210e-04
   4.0523871390e+03   4.4353233490e-03
   9.2232722710e+02   2.3020107710e-02
   2.6124070990e+02   9.2822490670e-02
   8.5354641350e+01   2.9378500010e-01
   3.1035035240e+01   6.7401604500e-01
 Atom  O12    Shell   127 S    2
   1.2260860730e+01   6.3839937030e-01
   4.9987076010e+00   3.9534587130e-01
 Atom  O12    Shell   128 S    1
   1.1703108160e+00   1.0000000000e+00
 Atom  O12    Shell   129 S    1
   4.6474740990e-01   1.0000000000e+00
 Atom  O12    Shell   130 S    1
   1.8504536360e-01   1.0000000000e+00
 Atom  O12    Shell   131 P    4
   6.3274954800e+01   1.2018332220e-02
   1.4627049380e+01   8.3005421790e-02
   4.4501223460e+00   3.1991743930e-01
   1.5275799650e+00   7.0715542920e-01
 Atom  O12    Shell   132 P    1
   5.2935117940e-01   1.0000000000e+00
 Atom  O12    Shell   133 P    1
   1.7478421270e-01   1.0000000000e+00
 Atom  O12    Shell   134 D    1
   2.3140000000e+00   1.0000000000e+00
 Atom  O12    Shell   135 D    1
   6.4500000000e-01   1.0000000000e+00
 Atom  O12    Shell   136 F    1
   1.4280000000e+00   1.0000000000e+00
 Atom  O13    Shell   137 S    6
   2.7032382630e+04   5.7227335210e-04
   4.0523871390e+03   4.4353233490e-03
   9.2232722710e+02   2.3020107710e-02
   2.6124070990e+02   9.2822490670e-02
   8.5354641350e+01   2.9378500010e-01
   3.1035035240e+01   6.7401604500e-01
 Atom  O13    Shell   138 S    2
   1.2260860730e+01   6.3839937030e-01
   4.9987076010e+00   3.9534587130e-01
 Atom  O13    Shell   139 S    1
   1.1703108160e+00   1.0000000000e+00
 Atom  O13    Shell   140 S    1
   4.6474740990e-01   1.0000000000e+00
 Atom  O13    Shell   141 S    1
   1.8504536360e-01   1.0000000000e+00
 Atom  O13    Shell   142 P    4
   6.3274954800e+01   1.2018332220e-02
   1.4627049380e+01   8.3005421790e-02
   4.4501223460e+00   3.1991743930e-01
   1.5275799650e+00   7.0715542920e-01
 Atom  O13    Shell   143 P    1
   5.2935117940e-01   1.0000000000e+00
 Atom  O13    Shell   144 P    1
   1.7478421270e-01   1.0000000000e+00
 Atom  O13    Shell   145 D    1
   2.3140000000e+00   1.0000000000e+00
 Atom  O13    Shell   146 D    1
   6.4500000000e-01   1.0000000000e+00
 Atom  O13    Shell   147 F    1
   1.4280000000e+00   1.0000000000e+00

  Molecular Orbital Coefficients:
                           1         2         3         4         5
                           O         O         O         O         O    
     Eigenvalues --   -35.70668 -35.70668 -35.70668 -35.70668 -35.70668
    1 Cr1     .S        0.00064   0.00064   0.00064   0.00064   0.00064
    2 Cr1     .S       -0.00209  -0.00209  -0.00209  -0.00209  -0.00209
    3 Cr1     .S        0.00464   0.00464   0.00464   0.00464   0.00464
    4 Cr1     .S       -0.00443  -0.00443  -0.00443  -0.00443  -0.00443
    5 Cr1     .S        0.06870   0.06870   0.06870   0.06870   0.06870
    6 Cr1     .S        0.03575   0.03575   0.03575   0.03575   0.03575
    7 Cr1     .X        0.00000  -0.00330  -0.00000  -0.00000   0.00330
    8 Cr1     .Y       -0.00000  -0.00000  -0.00330   0.00330  -0.00000
    9 Cr1     .Z        0.00330  -0.00000  -0.00000   0.00000  -0.00000
   10 Cr1     .X       -0.00000   0.00524   0.00000   0.00000  -0.00524
   11 Cr1     .Y        0.00000   0.00000   0.00524  -0.00524   0.00000
   12 Cr1     .Z       -0.00524   0.00000   0.00000   0.00000   0.00000
   13 Cr1     .X        0.00000   0.02526  -0.00000  -0.00000  -0.02526
   14 Cr1     .Y       -0.00000   0.00000   0.02526  -0.02526  -0.00000
   15 Cr1     .Z       -0.02526  -0.00000   0.00000   0.00000  -0.00000
   16 Cr1     .X        0.00000  -0.01313   0.00000   0.00000   0.01313
   17 Cr1     .Y       -0.00000  -0.00000  -0.01313   0.01313   0.00000
   18 Cr1     .Z        0.01313   0.00000  -0.00000  -0.00000   0.00000
   19 Cr1     .XX       0.01002  -0.02004   0.01002   0.01002  -0.02004
   20 Cr1     .YY       0.01002   0.01002  -0.02004  -0.02004   0.01002
   21 Cr1     .ZZ      -0.02004   0.01002   0.01002   0.01002   0.01002
   22 Cr1     .XY      -0.00000  -0.00000  -0.00000  -0.00000   0.00000
   23 Cr1     .XZ       0.00000   0.00000  -0.00000   0.00000   0.00000
   24 Cr1     .YZ       0.00000   0.00000  -0.00000   0.00000  -0.00000
   25 Cr1     .XX      -0.00122   0.00244  -0.00122  -0.00122   0.00244
   26 Cr1     .YY      -0.00122  -0.00122   0.00244   0.00244  -0.00122
   27 Cr1     .ZZ       0.00244  -0.00122  -0.00122  -0.00122  -0.00122
   28 Cr1     .XY       0.00000   0.00000   0.00000  -0.00000  -0.00000
   29 Cr1     .XZ      -0.00000   0.00000   0.00000  -0.00000  -0.00000
   30 Cr1     .YZ      -0.00000  -0.00000   0.00000  -0.00000  -0.00000
   31 Cr1     .XX       0.00213  -0.00426   0.00213   0.00213  -0.00426
   32 Cr1     .YY       0.00213   0.00213  -0.00426  -0.00426   0.00213
   33 Cr1     .ZZ      -0.00426   0.00213   0.00213   0.00213   0.00213
   34 Cr1     .XY      -0.00000  -0.00000  -0.00000   0.00000   0.00000
   35 Cr1     .XZ       0.00000  -0.00000  -0.00000   0.00000   0.00000
   36 Cr1     .YZ      -0.00000   0.00000  -0.00000   0.00000   0.00000
   37 Cr1     .XX      -0.01592   0.03184  -0.01592  -0.01592   0.03184
   38 Cr1     .YY      -0.01592  -0.01592   0.03184   0.03184  -0.01592
   39 Cr1     .ZZ       0.03184  -0.01592  -0.01592  -0.01592  -0.01592
   40 Cr1     .XY      -0.00000  -0.00000  -0.00000   0.00000   0.00000
   41 Cr1     .XZ      -0.00000  -0.00000  -0.00000   0.00000  -0.00000
   42 Cr1     .YZ       0.00000   0.00000  -0.00000   0.00000  -0.00000
   43 Cr1     .XXX     -0.00000   0.00065   0.00000   0.00000  -0.00065
   44 Cr1     .YYY      0.00000   0.00000  -0.00261   0.00261  -0.00000
   45 Cr1     .ZZZ     -0.00261   0.00000  -0.00000  -0.00000   0.00000
   46 Cr1     .XYY     -0.00000   0.00175   0.00000   0.00000  -0.00175
   47 Cr1     .XXY      0.00000   0.00000  -0.00263   0.00263  -0.00000
   48 Cr1     .XXZ     -0.00175   0.00000  -0.00000  -0.00000   0.00000
   49 Cr1     .XZZ      0.00000  -0.00175  -0.00000  -0.00000   0.00175
   50 Cr1     .YZZ      0.00000   0.00000  -0.00175   0.00175  -0.00000
   51 Cr1     .YYZ     -0.00175   0.00000  -0.00000  -0.00000   0.00000
   52 Cr1     .XYZ     -0.00000  -0.00000  -0.00000   0.00000   0.00000
   53 C2      .S       -0.00015  -0.01644  -0.00015  -0.00015   0.00074
   54 C2      .S       -0.00087  -0.07273  -0.00087  -0.00087  -0.00022
   55 C2      .S        0.00450   0.21688   0.00450   0.00450   0.00597
   56 C2      .S       -0.01302   0.09668  -0.01302  -0.01302  -0.02799
   57 C2      .S        0.00157  -0.13724   0.00157   0.00157   0.00162
   58 C2      .X       -0.00138   0.25445  -0.00138  -0.00138   0.00285
   59 C2      .Y       -0.00000  -0.00000  -0.00089   0.00089  -0.00000
   60 C2      .Z        0.00089   0.00000  -0.00000  -0.00000   0.00000
   61 C2      .X        0.00442   0.15474   0.00442   0.00442   0.00256
   62 C2      .Y        0.00000   0.00000   0.00268  -0.00268   0.00000
   63 C2      .Z       -0.00268  -0.00000   0.00000   0.00000  -0.00000
   64 C2      .X        0.00502   0.02823   0.00502   0.00502  -0.01074
   65 C2      .Y       -0.00000  -0.00000   0.01325  -0.01325   0.00000
   66 C2      .Z       -0.01325   0.00000  -0.00000  -0.00000   0.00000
   67 C2      .XX      -0.00060   0.03785  -0.00060  -0.00060   0.00005
   68 C2      .YY       0.00090  -0.01893  -0.00030  -0.00030  -0.00002
   69 C2      .ZZ      -0.00030  -0.01893   0.00090   0.00090  -0.00002
   70 C2      .XY      -0.00000  -0.00000  -0.00003   0.00003  -0.00000
   71 C2      .XZ      -0.00003  -0.00000   0.00000   0.00000  -0.00000
   72 C2      .YZ      -0.00000   0.00000  -0.00000   0.00000   0.00000
   73 C2      .XX       0.00029  -0.00033   0.00029   0.00029  -0.00091
   74 C2      .YY      -0.00157   0.00016   0.00128   0.00128   0.00045
   75 C2      .ZZ       0.00128   0.00016  -0.00157  -0.00157   0.00045
   76 C2      .XY       0.00000   0.00000  -0.00190   0.00190  -0.00000
   77 C2      .XZ      -0.00190   0.00000  -0.00000  -0.00000   0.00000
   78 C2      .YZ       0.00000  -0.00000   0.00000  -0.00000  -0.00000
   79 C2      .XXX      0.00008   0.00407  -0.00036  -0.00036   0.00019
   80 C2      .YYY      0.00000   0.00000  -0.00067   0.00067  -0.00000
   81 C2      .ZZZ     -0.00067   0.00000  -0.00000  -0.00000   0.00000
   82 C2      .XYY     -0.00017   0.01091  -0.00058  -0.00058   0.00050
   83 C2      .XXY      0.00000   0.00000  -0.00069   0.00069   0.00000
   84 C2      .XXZ     -0.00042   0.00000  -0.00000  -0.00000   0.00000
   85 C2      .XZZ      0.00058  -0.01091   0.00017   0.00017  -0.00050
   86 C2      .YZZ     -0.00000   0.00000  -0.00042   0.00042  -0.00000
   87 C2      .YYZ     -0.00042   0.00000  -0.00000  -0.00000   0.00000
   88 C2      .XYZ     -0.00000   0.00000  -0.00000   0.00000   0.00000
   89 C3      .S       -0.00015  -0.00015   0.00074  -0.01644  -0.00015
   90 C3      .S       -0.00087  -0.00087  -0.00022  -0.07273  -0.00087
   91 C3      .S        0.00450   0.00450   0.00597   0.21688   0.00450
   92 C3      .S       -0.01302  -0.01302  -0.02799   0.09668  -0.01302
   93 C3      .S        0.00157   0.00157   0.00162  -0.13724   0.00157
   94 C3      .X        0.00000  -0.00089   0.00000   0.00000   0.00089
   95 C3      .Y        0.00138   0.00138  -0.00285  -0.25445   0.00138
   96 C3      .Z        0.00089   0.00000  -0.00000  -0.00000   0.00000
   97 C3      .X       -0.00000   0.00268  -0.00000  -0.00000  -0.00268
   98 C3      .Y       -0.00442  -0.00442  -0.00256  -0.15474  -0.00442
   99 C3      .Z       -0.00268  -0.00000   0.00000   0.00000  -0.00000
  100 C3      .X        0.00000   0.01325   0.00000   0.00000  -0.01325
  101 C3      .Y       -0.00502  -0.00502   0.01074  -0.02823  -0.00502
  102 C3      .Z       -0.01325   0.00000  -0.00000   0.00000   0.00000
  103 C3      .XX       0.00090  -0.00030  -0.00002  -0.01893  -0.00030
  104 C3      .YY      -0.00060  -0.00060   0.00005   0.03785  -0.00060
  105 C3      .ZZ      -0.00030   0.00090  -0.00002  -0.01893   0.00090
  106 C3      .XY      -0.00000   0.00003  -0.00000  -0.00000  -0.00003
  107 C3      .XZ       0.00000  -0.00000  -0.00000   0.00000   0.00000
  108 C3      .YZ       0.00003   0.00000  -0.00000  -0.00000   0.00000
  109 C3      .XX      -0.00157   0.00128   0.00045   0.00016   0.00128
  110 C3      .YY       0.00029   0.00029  -0.00091  -0.00033   0.00029
  111 C3      .ZZ       0.00128  -0.00157   0.00045   0.00016  -0.00157
  112 C3      .XY      -0.00000   0.00190   0.00000   0.00000  -0.00190
  113 C3      .XZ      -0.00000   0.00000   0.00000  -0.00000  -0.00000
  114 C3      .YZ       0.00190  -0.00000   0.00000   0.00000  -0.00000
  115 C3      .XXX      0.00000   0.00021   0.00000  -0.00000  -0.00021
  116 C3      .YYY     -0.00056  -0.00056   0.00074   0.01627  -0.00056
  117 C3      .ZZZ     -0.00067   0.00000  -0.00000  -0.00000   0.00000
  118 C3      .XYY      0.00000   0.00049   0.00000   0.00000  -0.00049
  119 C3      .XXY     -0.00046  -0.00066   0.00075   0.01637  -0.00066
  120 C3      .XXZ     -0.00049   0.00000  -0.00000  -0.00000   0.00000
  121 C3      .XZZ      0.00000  -0.00042  -0.00000  -0.00000   0.00042
  122 C3      .YZZ     -0.00058  -0.00017   0.00050   0.01091  -0.00017
  123 C3      .YYZ     -0.00049   0.00000  -0.00000  -0.00000   0.00000
  124 C3      .XYZ     -0.00000   0.00000   0.00000  -0.00000  -0.00000
  125 C4      .S       -0.00015   0.00074  -0.00015  -0.00015  -0.01644
  126 C4      .S       -0.00087  -0.00022  -0.00087  -0.00087  -0.07273
  127 C4      .S        0.00450   0.00597   0.00450   0.00450   0.21688
  128 C4      .S       -0.01302  -0.02799  -0.01302  -0.01302   0.09668
  129 C4      .S        0.00157   0.00162   0.00157   0.00157  -0.13724
  130 C4      .X        0.00138  -0.00285   0.00138   0.00138  -0.25445
  131 C4      .Y       -0.00000  -0.00000  -0.00089   0.00089   0.00000
  132 C4      .Z        0.00089   0.00000  -0.00000  -0.00000   0.00000
  133 C4      .X       -0.00442  -0.00256  -0.00442  -0.00442  -0.15474
  134 C4      .Y        0.00000   0.00000   0.00268  -0.00268  -0.00000
  135 C4      .Z       -0.00268  -0.00000   0.00000   0.00000  -0.00000
  136 C4      .X       -0.00502   0.01074  -0.00502  -0.00502  -0.02823
  137 C4      .Y        0.00000  -0.00000   0.01325  -0.01325   0.00000
  138 C4      .Z       -0.01325   0.00000  -0.00000   0.00000   0.00000
  139 C4      .XX      -0.00060   0.00005  -0.00060  -0.00060   0.03785
  140 C4      .YY       0.00090  -0.00002  -0.00030  -0.00030  -0.01893
  141 C4      .ZZ      -0.00030  -0.00002   0.00090   0.00090  -0.01893
  142 C4      .XY       0.00000   0.00000   0.00003  -0.00003  -0.00000
  143 C4      .XZ       0.00003   0.00000  -0.00000  -0.00000   0.00000
  144 C4      .YZ       0.00000  -0.00000  -0.00000   0.00000   0.00000
  145 C4      .XX       0.00029  -0.00091   0.00029   0.00029  -0.00033
  146 C4      .YY      -0.00157   0.00045   0.00128   0.00128   0.00016
  147 C4      .ZZ       0.00128   0.00045  -0.00157  -0.00157   0.00016
  148 C4      .XY      -0.00000  -0.00000   0.00190  -0.00190   0.00000
  149 C4      .XZ       0.00190  -0.00000   0.00000   0.00000  -0.00000
  150 C4      .YZ       0.00000   0.00000   0.00000  -0.00000  -0.00000
  151 C4      .XXX     -0.00008  -0.00019   0.00036   0.00036  -0.00407
  152 C4      .YYY     -0.00000   0.00000  -0.00067   0.00067  -0.00000
  153 C4      .ZZZ     -0.00067   0.00000  -0.00000  -0.00000   0.00000
  154 C4      .XYY      0.00017  -0.00050   0.00058   0.00058  -0.01091
  155 C4      .XXY     -0.00000   0.00000  -0.00069   0.00069  -0.00000
  156 C4      .XXZ     -0.00042   0.00000  -0.00000  -0.00000   0.00000
  157 C4      .XZZ     -0.00058   0.00050  -0.00017  -0.00017   0.01091
  158 C4      .YZZ      0.00000   0.00000  -0.00042   0.00042  -0.00000
  159 C4      .YYZ     -0.00042   0.00000  -0.00000  -0.00000   0.00000
  160 C4      .XYZ      0.00000   0.00000   0.00000  -0.00000  -0.00000
  161 C5      .S       -0.00015  -0.00015  -0.01644   0.00074  -0.00015
  162 C5      .S       -0.00087  -0.00087  -0.07273  -0.00022  -0.00087
  163 C5      .S        0.00450   0.00450   0.21688   0.00597   0.00450
  164 C5      .S       -0.01302  -0.01302   0.09668  -0.02799  -0.01302
  165 C5      .S        0.00157   0.00157  -0.13724   0.00162   0.00157
  166 C5      .X        0.00000  -0.00089   0.00000   0.00000   0.00089
  167 C5      .Y       -0.00138  -0.00138   0.25445   0.00285  -0.00138
  168 C5      .Z        0.00089   0.00000  -0.00000  -0.00000   0.00000
  169 C5      .X       -0.00000   0.00268  -0.00000  -0.00000  -0.00268
  170 C5      .Y        0.00442   0.00442   0.15474   0.00256   0.00442
  171 C5      .Z       -0.00268  -0.00000   0.00000   0.00000  -0.00000
  172 C5      .X       -0.00000   0.01325   0.00000   0.00000  -0.01325
  173 C5      .Y        0.00502   0.00502   0.02823  -0.01074   0.00502
  174 C5      .Z       -0.01325   0.00000  -0.00000  -0.00000   0.00000
  175 C5      .XX       0.00090  -0.00030  -0.01893  -0.00002  -0.00030
  176 C5      .YY      -0.00060  -0.00060   0.03785   0.00005  -0.00060
  177 C5      .ZZ      -0.00030   0.00090  -0.01893  -0.00002   0.00090
  178 C5      .XY       0.00000  -0.00003   0.00000   0.00000   0.00003
  179 C5      .XZ       0.00000  -0.00000  -0.00000   0.00000   0.00000
  180 C5      .YZ      -0.00003  -0.00000   0.00000   0.00000  -0.00000
  181 C5      .XX      -0.00157   0.00128   0.00016   0.00045   0.00128
  182 C5      .YY       0.00029   0.00029  -0.00033  -0.00091   0.00029
  183 C5      .ZZ       0.00128  -0.00157   0.00016   0.00045  -0.00157
  184 C5      .XY      -0.00000  -0.00190  -0.00000  -0.00000   0.00190
  185 C5      .XZ      -0.00000   0.00000   0.00000  -0.00000  -0.00000
  186 C5      .YZ      -0.00190   0.00000  -0.00000  -0.00000   0.00000
  187 C5      .XXX     -0.00000   0.00021  -0.00000  -0.00000  -0.00021
  188 C5      .YYY      0.00056   0.00056  -0.01627  -0.00074   0.00056
  189 C5      .ZZZ     -0.00067   0.00000  -0.00000  -0.00000   0.00000
  190 C5      .XYY     -0.00000   0.00049   0.00000   0.00000  -0.00049
  191 C5      .XXY      0.00046   0.00066  -0.01637  -0.00075   0.00066
  192 C5      .XXZ     -0.00049   0.00000  -0.00000  -0.00000   0.00000
  193 C5      .XZZ     -0.00000  -0.00042  -0.00000  -0.00000   0.00042
  194 C5      .YZZ      0.00058   0.00017  -0.01091  -0.00050   0.00017
  195 C5      .YYZ     -0.00049   0.00000  -0.00000  -0.00000   0.00000
  196 C5      .XYZ     -0.00000  -0.00000  -0.00000   0.00000   0.00000
  197 C6      .S        0.00074  -0.00015  -0.00015  -0.00015  -0.00015
  198 C6      .S       -0.00022  -0.00087  -0.00087  -0.00087  -0.00087
  199 C6      .S        0.00597   0.00450   0.00450   0.00450   0.00450
  200 C6      .S       -0.02799  -0.01302  -0.01302  -0.01302  -0.01302
  201 C6      .S        0.00162   0.00157   0.00157   0.00157   0.00157
  202 C6      .X        0.00000  -0.00089   0.00000   0.00000   0.00089
  203 C6      .Y       -0.00000  -0.00000  -0.00089   0.00089   0.00000
  204 C6      .Z        0.00285  -0.00138  -0.00138  -0.00138  -0.00138
  205 C6      .X       -0.00000   0.00268  -0.00000  -0.00000  -0.00268
  206 C6      .Y        0.00000   0.00000   0.00268  -0.00268  -0.00000
  207 C6      .Z        0.00256   0.00442   0.00442   0.00442   0.00442
  208 C6      .X        0.00000   0.01325   0.00000   0.00000  -0.01325
  209 C6      .Y       -0.00000  -0.00000   0.01325  -0.01325   0.00000
  210 C6      .Z       -0.01074   0.00502   0.00502   0.00502   0.00502
  211 C6      .XX      -0.00002  -0.00030   0.00090   0.00090  -0.00030
  212 C6      .YY      -0.00002   0.00090  -0.00030  -0.00030   0.00090
  213 C6      .ZZ       0.00005  -0.00060  -0.00060  -0.00060  -0.00060
  214 C6      .XY      -0.00000  -0.00000  -0.00000   0.00000   0.00000
  215 C6      .XZ      -0.00000   0.00003  -0.00000  -0.00000  -0.00003
  216 C6      .YZ       0.00000   0.00000   0.00003  -0.00003  -0.00000
  217 C6      .XX       0.00045   0.00128  -0.00157  -0.00157   0.00128
  218 C6      .YY       0.00045  -0.00157   0.00128   0.00128  -0.00157
  219 C6      .ZZ      -0.00091   0.00029   0.00029   0.00029   0.00029
  220 C6      .XY       0.00000   0.00000   0.00000  -0.00000  -0.00000
  221 C6      .XZ       0.00000   0.00190   0.00000   0.00000  -0.00190
  222 C6      .YZ      -0.00000  -0.00000   0.00190  -0.00190   0.00000
  223 C6      .XXX      0.00000   0.00013  -0.00000   0.00000  -0.00013
  224 C6      .YYY      0.00000   0.00000  -0.00067   0.00067  -0.00000
  225 C6      .ZZZ      0.00074  -0.00056  -0.00056  -0.00056  -0.00056
  226 C6      .XYY      0.00000   0.00042   0.00000   0.00000  -0.00042
  227 C6      .XXY      0.00000   0.00000  -0.00066   0.00066  -0.00000
  228 C6      .XXZ      0.00050  -0.00017  -0.00058  -0.00058  -0.00017
  229 C6      .XZZ      0.00000  -0.00049  -0.00000  -0.00000   0.00049
  230 C6      .YZZ      0.00000  -0.00000  -0.00049   0.00049   0.00000
  231 C6      .YYZ      0.00050  -0.00017  -0.00058  -0.00058  -0.00017
  232 C6      .XYZ      0.00000   0.00000   0.00000  -0.00000  -0.00000
  233 C7      .S       -0.01644  -0.00015  -0.00015  -0.00015  -0.00015
  234 C7      .S       -0.07273  -0.00087  -0.00087  -0.00087  -0.00087
  235 C7      .S        0.21688   0.00450   0.00450   0.00450   0.00450
  236 C7      .S        0.09668  -0.01302  -0.01302  -0.01302  -0.01302
  237 C7      .S       -0.13724   0.00157   0.00157   0.00157   0.00157
  238 C7      .X        0.00000  -0.00089   0.00000   0.00000   0.00089
  239 C7      .Y       -0.00000  -0.00000  -0.00089   0.00089  -0.00000
  240 C7      .Z       -0.25445   0.00138   0.00138   0.00138   0.00138
  241 C7      .X        0.00000   0.00268  -0.00000  -0.00000  -0.00268
  242 C7      .Y        0.00000   0.00000   0.00268  -0.00268   0.00000
  243 C7      .Z       -0.15474  -0.00442  -0.00442  -0.00442  -0.00442
  244 C7      .X       -0.00000   0.01325  -0.00000   0.00000  -0.01325
  245 C7      .Y        0.00000  -0.00000   0.01325  -0.01325   0.00000
  246 C7      .Z       -0.02823  -0.00502  -0.00502  -0.00502  -0.00502
  247 C7      .XX      -0.01893  -0.00030   0.00090   0.00090  -0.00030
  248 C7      .YY      -0.01893   0.00090  -0.00030  -0.00030   0.00090
  249 C7      .ZZ       0.03785  -0.00060  -0.00060  -0.00060  -0.00060
  250 C7      .XY      -0.00000  -0.00000  -0.00000   0.00000   0.00000
  251 C7      .XZ       0.00000  -0.00003   0.00000   0.00000   0.00003
  252 C7      .YZ      -0.00000  -0.00000  -0.00003   0.00003  -0.00000
  253 C7      .XX       0.00016   0.00128  -0.00157  -0.00157   0.00128
  254 C7      .YY       0.00016  -0.00157   0.00128   0.00128  -0.00157
  255 C7      .ZZ      -0.00033   0.00029   0.00029   0.00029   0.00029
  256 C7      .XY       0.00000   0.00000   0.00000  -0.00000  -0.00000
  257 C7      .XZ      -0.00000  -0.00190  -0.00000  -0.00000   0.00190
  258 C7      .YZ       0.00000   0.00000  -0.00190   0.00190  -0.00000
  259 C7      .XXX      0.00000   0.00013   0.00000   0.00000  -0.00013
  260 C7      .YYY      0.00000   0.00000  -0.00067   0.00067   0.00000
  261 C7      .ZZZ     -0.01627   0.00056   0.00056   0.00056   0.00056
  262 C7      .XYY      0.00000   0.00042   0.00000   0.00000  -0.00042
  263 C7      .XXY      0.00000   0.00000  -0.00066   0.00066  -0.00000
  264 C7      .XXZ     -0.01091   0.00017   0.00058   0.00058   0.00017
  265 C7      .XZZ      0.00000  -0.00049  -0.00000  -0.00000   0.00049
  266 C7      .YZZ      0.00000   0.00000  -0.00049   0.00049   0.00000
  267 C7      .YYZ     -0.01091   0.00017   0.00058   0.00058   0.00017
  268 C7      .XYZ     -0.00000  -0.00000  -0.00000   0.00000   0.00000
  269 O8      .S        0.00006  -0.02966   0.00006   0.00006  -0.00015
  270 O8      .S        0.00044  -0.10550   0.00044   0.00044  -0.00043
  271 O8      .S       -0.00174   0.24910  -0.00174  -0.00174   0.00106
  272 O8      .S        0.00108   0.24544   0.00108   0.00108   0.00631
  273 O8      .S       -0.00164   0.03187  -0.00164  -0.00164  -0.01204
  274 O8      .X        0.00075  -0.27615   0.00075   0.00075  -0.00092
  275 O8      .Y        0.00000  -0.00000  -0.00015   0.00015   0.00000
  276 O8      .Z        0.00015   0.00000  -0.00000  -0.00000   0.00000
  277 O8      .X       -0.00141  -0.17829  -0.00141  -0.00141   0.00029
  278 O8      .Y       -0.00000   0.00000  -0.00055   0.00055  -0.00000
  279 O8      .Z        0.00055  -0.00000   0.00000  -0.00000  -0.00000
  280 O8      .X       -0.00045  -0.06580  -0.00045  -0.00045   0.00205
  281 O8      .Y        0.00000   0.00000  -0.00507   0.00507  -0.00000
  282 O8      .Z        0.00507  -0.00000   0.00000   0.00000  -0.00000
  283 O8      .XX       0.00007   0.01076   0.00007   0.00007   0.00014
  284 O8      .YY      -0.00006  -0.00538  -0.00001  -0.00001  -0.00007
  285 O8      .ZZ      -0.00001  -0.00538  -0.00006  -0.00006  -0.00007
  286 O8      .XY       0.00000  -0.00000   0.00018  -0.00018   0.00000
  287 O8      .XZ       0.00018  -0.00000   0.00000   0.00000  -0.00000
  288 O8      .YZ      -0.00000  -0.00000   0.00000  -0.00000  -0.00000
  289 O8      .XX       0.00052   0.01159   0.00052   0.00052  -0.00153
  290 O8      .YY       0.00017  -0.00579  -0.00068  -0.00068   0.00076
  291 O8      .ZZ      -0.00068  -0.00579   0.00017   0.00017   0.00076
  292 O8      .XY      -0.00000   0.00000  -0.00065   0.00065  -0.00000
  293 O8      .XZ      -0.00065   0.00000  -0.00000  -0.00000   0.00000
  294 O8      .YZ      -0.00000   0.00000  -0.00000   0.00000   0.00000
  295 O8      .XXX      0.00009  -0.00050  -0.00011  -0.00011   0.00005
  296 O8      .YYY     -0.00000   0.00000   0.00008  -0.00008  -0.00000
  297 O8      .ZZZ      0.00008  -0.00000   0.00000   0.00000  -0.00000
  298 O8      .XYY      0.00007  -0.00135  -0.00011  -0.00011   0.00014
  299 O8      .XXY     -0.00000   0.00000   0.00012  -0.00012  -0.00000
  300 O8      .XXZ     -0.00001   0.00000   0.00000  -0.00000   0.00000
  301 O8      .XZZ      0.00011   0.00135  -0.00007  -0.00007  -0.00014
  302 O8      .YZZ      0.00000  -0.00000  -0.00001   0.00001   0.00000
  303 O8      .YYZ     -0.00001   0.00000   0.00000  -0.00000   0.00000
  304 O8      .XYZ     -0.00000  -0.00000   0.00000   0.00000  -0.00000
  305 O9      .S        0.00006   0.00006  -0.00015  -0.02966   0.00006
  306 O9      .S        0.00044   0.00044  -0.00043  -0.10550   0.00044
  307 O9      .S       -0.00174  -0.00174   0.00106   0.24910  -0.00174
  308 O9      .S        0.00108   0.00108   0.00631   0.24544   0.00108
  309 O9      .S       -0.00164  -0.00164  -0.01204   0.03187  -0.00164
  310 O9      .X       -0.00000  -0.00015   0.00000   0.00000   0.00015
  311 O9      .Y       -0.00075  -0.00075   0.00092   0.27615  -0.00075
  312 O9      .Z        0.00015   0.00000  -0.00000  -0.00000   0.00000
  313 O9      .X        0.00000  -0.00055  -0.00000  -0.00000   0.00055
  314 O9      .Y        0.00141   0.00141  -0.00029   0.17829   0.00141
  315 O9      .Z        0.00055  -0.00000   0.00000   0.00000  -0.00000
  316 O9      .X       -0.00000  -0.00507  -0.00000  -0.00000   0.00507
  317 O9      .Y        0.00045   0.00045  -0.00205   0.06580   0.00045
  318 O9      .Z        0.00507  -0.00000   0.00000   0.00000  -0.00000
  319 O9      .XX      -0.00006  -0.00001  -0.00007  -0.00538  -0.00001
  320 O9      .YY       0.00007   0.00007   0.00014   0.01076   0.00007
  321 O9      .ZZ      -0.00001  -0.00006  -0.00007  -0.00538  -0.00006
  322 O9      .XY       0.00000  -0.00018  -0.00000  -0.00000   0.00018
  323 O9      .XZ       0.00000   0.00000   0.00000  -0.00000  -0.00000
  324 O9      .YZ      -0.00018   0.00000  -0.00000  -0.00000   0.00000
  325 O9      .XX       0.00017  -0.00068   0.00076  -0.00579  -0.00068
  326 O9      .YY       0.00052   0.00052  -0.00153   0.01159   0.00052
  327 O9      .ZZ      -0.00068   0.00017   0.00076  -0.00579   0.00017
  328 O9      .XY      -0.00000   0.00065   0.00000   0.00000  -0.00065
  329 O9      .XZ       0.00000  -0.00000  -0.00000   0.00000   0.00000
  330 O9      .YZ       0.00065  -0.00000   0.00000   0.00000  -0.00000
  331 O9      .XXX     -0.00000  -0.00010  -0.00000  -0.00000   0.00010
  332 O9      .YYY     -0.00003  -0.00003   0.00021  -0.00201  -0.00003
  333 O9      .ZZZ      0.00008  -0.00000   0.00000   0.00000  -0.00000
  334 O9      .XYY     -0.00000  -0.00012  -0.00000  -0.00000   0.00012
  335 O9      .XXY      0.00001  -0.00008   0.00021  -0.00203  -0.00008
  336 O9      .XXZ      0.00012  -0.00000   0.00000   0.00000  -0.00000
  337 O9      .XZZ     -0.00000  -0.00001  -0.00000  -0.00000   0.00001
  338 O9      .YZZ     -0.00011   0.00007   0.00014  -0.00135   0.00007
  339 O9      .YYZ      0.00012  -0.00000   0.00000   0.00000  -0.00000
  340 O9      .XYZ     -0.00000  -0.00000   0.00000  -0.00000   0.00000
  341 O10     .S        0.00006  -0.00015   0.00006   0.00006  -0.02966
  342 O10     .S        0.00044  -0.00043   0.00044   0.00044  -0.10550
  343 O10     .S       -0.00174   0.00106  -0.00174  -0.00174   0.24910
  344 O10     .S        0.00108   0.00631   0.00108   0.00108   0.24544
  345 O10     .S       -0.00164  -0.01204  -0.00164  -0.00164   0.03187
  346 O10     .X       -0.00075   0.00092  -0.00075  -0.00075   0.27615
  347 O10     .Y       -0.00000  -0.00000  -0.00015   0.00015   0.00000
  348 O10     .Z        0.00015   0.00000  -0.00000  -0.00000   0.00000
  349 O10     .X        0.00141  -0.00029   0.00141   0.00141   0.17829
  350 O10     .Y        0.00000   0.00000  -0.00055   0.00055  -0.00000
  351 O10     .Z        0.00055  -0.00000   0.00000   0.00000  -0.00000
  352 O10     .X        0.00045  -0.00205   0.00045   0.00045   0.06580
  353 O10     .Y       -0.00000   0.00000  -0.00507   0.00507  -0.00000
  354 O10     .Z        0.00507  -0.00000   0.00000   0.00000  -0.00000
  355 O10     .XX       0.00007   0.00014   0.00007   0.00007   0.01076
  356 O10     .YY      -0.00006  -0.00007  -0.00001  -0.00001  -0.00538
  357 O10     .ZZ      -0.00001  -0.00007  -0.00006  -0.00006  -0.00538
  358 O10     .XY       0.00000   0.00000  -0.00018   0.00018  -0.00000
  359 O10     .XZ      -0.00018   0.00000  -0.00000  -0.00000   0.00000
  360 O10     .YZ      -0.00000   0.00000   0.00000  -0.00000  -0.00000
  361 O10     .XX       0.00052  -0.00153   0.00052   0.00052   0.01159
  362 O10     .YY       0.00017   0.00076  -0.00068  -0.00068  -0.00579
  363 O10     .ZZ      -0.00068   0.00076   0.00017   0.00017  -0.00579
  364 O10     .XY      -0.00000  -0.00000   0.00065  -0.00065   0.00000
  365 O10     .XZ       0.00065  -0.00000   0.00000   0.00000  -0.00000
  366 O10     .YZ       0.00000   0.00000  -0.00000   0.00000   0.00000
  367 O10     .XXX     -0.00009  -0.00005   0.00011   0.00011   0.00050
  368 O10     .YYY      0.00000  -0.00000   0.00008  -0.00008   0.00000
  369 O10     .ZZZ      0.00008  -0.00000   0.00000   0.00000   0.00000
  370 O10     .XYY     -0.00007  -0.00014   0.00011   0.00011   0.00135
  371 O10     .XXY      0.00000  -0.00000   0.00012  -0.00012  -0.00000
  372 O10     .XXZ     -0.00001   0.00000  -0.00000  -0.00000  -0.00000
  373 O10     .XZZ     -0.00011   0.00014   0.00007   0.00007  -0.00135
  374 O10     .YZZ     -0.00000   0.00000  -0.00001   0.00001   0.00000
  375 O10     .YYZ     -0.00001   0.00000  -0.00000  -0.00000  -0.00000
  376 O10     .XYZ      0.00000  -0.00000   0.00000  -0.00000   0.00000
  377 O11     .S        0.00006   0.00006  -0.02966  -0.00015   0.00006
  378 O11     .S        0.00044   0.00044  -0.10550  -0.00043   0.00044
  379 O11     .S       -0.00174  -0.00174   0.24910   0.00106  -0.00174
  380 O11     .S        0.00108   0.00108   0.24544   0.00631   0.00108
  381 O11     .S       -0.00164  -0.00164   0.03187  -0.01204  -0.00164
  382 O11     .X        0.00000  -0.00015   0.00000   0.00000   0.00015
  383 O11     .Y        0.00075   0.00075  -0.27615  -0.00092   0.00075
  384 O11     .Z        0.00015   0.00000  -0.00000  -0.00000   0.00000
  385 O11     .X       -0.00000  -0.00055  -0.00000  -0.00000   0.00055
  386 O11     .Y       -0.00141  -0.00141  -0.17829   0.00029  -0.00141
  387 O11     .Z        0.00055  -0.00000   0.00000   0.00000  -0.00000
  388 O11     .X       -0.00000  -0.00507  -0.00000  -0.00000   0.00507
  389 O11     .Y       -0.00045  -0.00045  -0.06580   0.00205  -0.00045
  390 O11     .Z        0.00507  -0.00000   0.00000   0.00000  -0.00000
  391 O11     .XX      -0.00006  -0.00001  -0.00538  -0.00007  -0.00001
  392 O11     .YY       0.00007   0.00007   0.01076   0.00014   0.00007
  393 O11     .ZZ      -0.00001  -0.00006  -0.00538  -0.00007  -0.00006
  394 O11     .XY       0.00000   0.00018   0.00000   0.00000  -0.00018
  395 O11     .XZ      -0.00000   0.00000   0.00000  -0.00000  -0.00000
  396 O11     .YZ       0.00018  -0.00000   0.00000   0.00000  -0.00000
  397 O11     .XX       0.00017  -0.00068  -0.00579   0.00076  -0.00068
  398 O11     .YY       0.00052   0.00052   0.01159  -0.00153   0.00052
  399 O11     .ZZ      -0.00068   0.00017  -0.00579   0.00076   0.00017
  400 O11     .XY      -0.00000  -0.00065  -0.00000  -0.00000   0.00065
  401 O11     .XZ       0.00000  -0.00000  -0.00000   0.00000   0.00000
  402 O11     .YZ      -0.00065   0.00000  -0.00000  -0.00000   0.00000
  403 O11     .XXX      0.00000  -0.00010  -0.00000  -0.00000   0.00010
  404 O11     .YYY      0.00003   0.00003   0.00201  -0.00021   0.00003
  405 O11     .ZZZ      0.00008  -0.00000   0.00000   0.00000  -0.00000
  406 O11     .XYY      0.00000  -0.00012  -0.00000  -0.00000   0.00012
  407 O11     .XXY     -0.00001   0.00008   0.00203  -0.00021   0.00008
  408 O11     .XXZ      0.00012  -0.00000   0.00000   0.00000  -0.00000
  409 O11     .XZZ      0.00000  -0.00001  -0.00000  -0.00000   0.00001
  410 O11     .YZZ      0.00011  -0.00007   0.00135  -0.00014  -0.00007
  411 O11     .YYZ      0.00012  -0.00000   0.00000   0.00000  -0.00000
  412 O11     .XYZ     -0.00000   0.00000  -0.00000   0.00000  -0.00000
  413 O12     .S       -0.00015   0.00006   0.00006   0.00006   0.00006
  414 O12     .S       -0.00043   0.00044   0.00044   0.00044   0.00044
  415 O12     .S        0.00106  -0.00174  -0.00174  -0.00174  -0.00174
  416 O12     .S        0.00631   0.00108   0.00108   0.00108   0.00108
  417 O12     .S       -0.01204  -0.00164  -0.00164  -0.00164  -0.00164
  418 O12     .X        0.00000  -0.00015   0.00000   0.00000   0.00015
  419 O12     .Y       -0.00000  -0.00000  -0.00015   0.00015   0.00000
  420 O12     .Z       -0.00092   0.00075   0.00075   0.00075   0.00075
  421 O12     .X       -0.00000  -0.00055  -0.00000  -0.00000   0.00055
  422 O12     .Y        0.00000   0.00000  -0.00055   0.00055  -0.00000
  423 O12     .Z        0.00029  -0.00141  -0.00141  -0.00141  -0.00141
  424 O12     .X       -0.00000  -0.00507  -0.00000  -0.00000   0.00507
  425 O12     .Y        0.00000   0.00000  -0.00507   0.00507  -0.00000
  426 O12     .Z        0.00205  -0.00045  -0.00045  -0.00045  -0.00045
  427 O12     .XX      -0.00007  -0.00001  -0.00006  -0.00006  -0.00001
  428 O12     .YY      -0.00007  -0.00006  -0.00001  -0.00001  -0.00006
  429 O12     .ZZ       0.00014   0.00007   0.00007   0.00007   0.00007
  430 O12     .XY       0.00000  -0.00000   0.00000  -0.00000  -0.00000
  431 O12     .XZ      -0.00000  -0.00018  -0.00000  -0.00000   0.00018
  432 O12     .YZ       0.00000   0.00000  -0.00018   0.00018  -0.00000
  433 O12     .XX       0.00076  -0.00068   0.00017   0.00017  -0.00068
  434 O12     .YY       0.00076   0.00017  -0.00068  -0.00068   0.00017
  435 O12     .ZZ      -0.00153   0.00052   0.00052   0.00052   0.00052
  436 O12     .XY      -0.00000  -0.00000  -0.00000   0.00000   0.00000
  437 O12     .XZ       0.00000   0.00065   0.00000   0.00000  -0.00065
  438 O12     .YZ      -0.00000  -0.00000   0.00065  -0.00065   0.00000
  439 O12     .XXX     -0.00000   0.00006   0.00000   0.00000  -0.00006
  440 O12     .YYY     -0.00000  -0.00000   0.00008  -0.00008  -0.00000
  441 O12     .ZZZ      0.00021  -0.00003  -0.00003  -0.00003  -0.00003
  442 O12     .XYY     -0.00000   0.00001   0.00000   0.00000  -0.00001
  443 O12     .XXY     -0.00000  -0.00000   0.00005  -0.00005  -0.00000
  444 O12     .XXZ      0.00014   0.00007  -0.00011  -0.00011   0.00007
  445 O12     .XZZ     -0.00000   0.00012   0.00000   0.00000  -0.00012
  446 O12     .YZZ     -0.00000  -0.00000   0.00012  -0.00012   0.00000
  447 O12     .YYZ      0.00014   0.00007  -0.00011  -0.00011   0.00007
  448 O12     .XYZ     -0.00000   0.00000  -0.00000   0.00000  -0.00000
  449 O13     .S       -0.02966   0.00006   0.00006   0.00006   0.00006
  450 O13     .S       -0.10550   0.00044   0.00044   0.00044   0.00044
  451 O13     .S        0.24910  -0.00174  -0.00174  -0.00174  -0.00174
  452 O13     .S        0.24544   0.00108   0.00108   0.00108   0.00108
  453 O13     .S        0.03187  -0.00164  -0.00164  -0.00164  -0.00164
  454 O13     .X        0.00000  -0.00015   0.00000  -0.00000   0.00015
  455 O13     .Y       -0.00000  -0.00000  -0.00015   0.00015   0.00000
  456 O13     .Z        0.27615  -0.00075  -0.00075  -0.00075  -0.00075
  457 O13     .X       -0.00000  -0.00055  -0.00000   0.00000   0.00055
  458 O13     .Y        0.00000   0.00000  -0.00055   0.00055  -0.00000
  459 O13     .Z        0.17829   0.00141   0.00141   0.00141   0.00141
  460 O13     .X        0.00000  -0.00507  -0.00000  -0.00000   0.00507
  461 O13     .Y       -0.00000   0.00000  -0.00507   0.00507  -0.00000
  462 O13     .Z        0.06580   0.00045   0.00045   0.00045   0.00045
  463 O13     .XX      -0.00538  -0.00001  -0.00006  -0.00006  -0.00001
  464 O13     .YY      -0.00538  -0.00006  -0.00001  -0.00001  -0.00006
  465 O13     .ZZ       0.01076   0.00007   0.00007   0.00007   0.00007
  466 O13     .XY       0.00000   0.00000  -0.00000  -0.00000   0.00000
  467 O13     .XZ      -0.00000   0.00018   0.00000   0.00000  -0.00018
  468 O13     .YZ      -0.00000  -0.00000   0.00018  -0.00018   0.00000
  469 O13     .XX      -0.00579  -0.00068   0.00017   0.00017  -0.00068
  470 O13     .YY      -0.00579   0.00017  -0.00068  -0.00068   0.00017
  471 O13     .ZZ       0.01159   0.00052   0.00052   0.00052   0.00052
  472 O13     .XY      -0.00000  -0.00000  -0.00000   0.00000   0.00000
  473 O13     .XZ      -0.00000  -0.00065  -0.00000  -0.00000   0.00065
  474 O13     .YZ       0.00000   0.00000  -0.00065   0.00065  -0.00000
  475 O13     .XXX      0.00000   0.00006   0.00000   0.00000  -0.00006
  476 O13     .YYY     -0.00000  -0.00000   0.00008  -0.00008  -0.00000
  477 O13     .ZZZ      0.00201   0.00003   0.00003   0.00003   0.00003
  478 O13     .XYY      0.00000   0.00001   0.00000   0.00000  -0.00001
  479 O13     .XXY     -0.00000  -0.00000   0.00005  -0.00005  -0.00000
  480 O13     .XXZ      0.00135  -0.00007   0.00011   0.00011  -0.00007
  481 O13     .XZZ     -0.00000   0.00012   0.00000   0.00000  -0.00012
  482 O13     .YZZ     -0.00000  -0.00000   0.00012  -0.00012  -0.00000
  483 O13     .YYZ      0.00135  -0.00007   0.00011   0.00011  -0.00007
  484 O13     .XYZ      0.00000  -0.00000  -0.00000   0.00000   0.00000
                           6         7         8         9        10
                           O         O         O         O         O    
     Eigenvalues --   -35.70668 -21.10990 -21.10990 -21.10990 -21.10990
    1 Cr1     .S        0.00064  -0.00145  -0.00145  -0.00145  -0.00145
    2 Cr1     .S       -0.00209   0.00149   0.00149   0.00149   0.00149
    3 Cr1     .S        0.00464  -0.01747  -0.01747  -0.01747  -0.01747
    4 Cr1     .S       -0.00443   0.01667   0.01667   0.01667   0.01667
    5 Cr1     .S        0.06870  -0.13892  -0.13892  -0.13892  -0.13892
    6 Cr1     .S        0.03575   0.03443   0.03443   0.03443   0.03443
    7 Cr1     .X       -0.00000   0.00000  -0.00456   0.00456  -0.00000
    8 Cr1     .Y        0.00000   0.00456  -0.00000  -0.00000  -0.00456
    9 Cr1     .Z       -0.00330   0.00000   0.00000  -0.00000   0.00000
   10 Cr1     .X        0.00000  -0.00000   0.01382  -0.01382   0.00000
   11 Cr1     .Y        0.00000  -0.01382   0.00000   0.00000   0.01382
   12 Cr1     .Z        0.00524  -0.00000  -0.00000   0.00000  -0.00000
   13 Cr1     .X       -0.00000   0.00000  -0.00612   0.00612  -0.00000
   14 Cr1     .Y        0.00000   0.00612  -0.00000  -0.00000  -0.00612
   15 Cr1     .Z        0.02526   0.00000  -0.00000  -0.00000   0.00000
   16 Cr1     .X        0.00000  -0.00000   0.09936  -0.09936   0.00000
   17 Cr1     .Y       -0.00000  -0.09936   0.00000  -0.00000   0.09936
   18 Cr1     .Z       -0.01313  -0.00000   0.00000   0.00000  -0.00000
   19 Cr1     .XX       0.01002   0.00253  -0.00506  -0.00506   0.00253
   20 Cr1     .YY       0.01002  -0.00506   0.00253   0.00253  -0.00506
   21 Cr1     .ZZ      -0.02004   0.00253   0.00253   0.00253   0.00253
   22 Cr1     .XY       0.00000  -0.00000   0.00000  -0.00000  -0.00000
   23 Cr1     .XZ       0.00000   0.00000   0.00000   0.00000   0.00000
   24 Cr1     .YZ       0.00000   0.00000  -0.00000  -0.00000   0.00000
   25 Cr1     .XX      -0.00122   0.00545  -0.01090  -0.01090   0.00545
   26 Cr1     .YY      -0.00122  -0.01090   0.00545   0.00545  -0.01090
   27 Cr1     .ZZ       0.00244   0.00545   0.00545   0.00545   0.00545
   28 Cr1     .XY      -0.00000   0.00000   0.00000   0.00000  -0.00000
   29 Cr1     .XZ      -0.00000  -0.00000  -0.00000  -0.00000  -0.00000
   30 Cr1     .YZ      -0.00000  -0.00000   0.00000   0.00000  -0.00000
   31 Cr1     .XX       0.00213   0.00989  -0.01978  -0.01978   0.00989
   32 Cr1     .YY       0.00213  -0.01978   0.00989   0.00989  -0.01978
   33 Cr1     .ZZ      -0.00426   0.00989   0.00989   0.00989   0.00989
   34 Cr1     .XY       0.00000  -0.00000  -0.00000  -0.00000   0.00000
   35 Cr1     .XZ       0.00000   0.00000   0.00000   0.00000   0.00000
   36 Cr1     .YZ       0.00000   0.00000  -0.00000  -0.00000   0.00000
   37 Cr1     .XX      -0.01592  -0.00887   0.01775   0.01775  -0.00887
   38 Cr1     .YY      -0.01592   0.01775  -0.00887  -0.00887   0.01775
   39 Cr1     .ZZ       0.03184  -0.00887  -0.00887  -0.00887  -0.00887
   40 Cr1     .XY       0.00000   0.00000  -0.00000  -0.00000   0.00000
   41 Cr1     .XZ       0.00000   0.00000   0.00000  -0.00000   0.00000
   42 Cr1     .YZ       0.00000   0.00000  -0.00000  -0.00000   0.00000
   43 Cr1     .XXX      0.00000  -0.00000   0.00024  -0.00024   0.00000
   44 Cr1     .YYY      0.00000   0.00095  -0.00000   0.00000  -0.00095
   45 Cr1     .ZZZ      0.00261  -0.00000   0.00000   0.00000  -0.00000
   46 Cr1     .XYY      0.00000  -0.00000   0.00064  -0.00064   0.00000
   47 Cr1     .XXY      0.00000   0.00095  -0.00000   0.00000  -0.00095
   48 Cr1     .XXZ      0.00175  -0.00000   0.00000   0.00000  -0.00000
   49 Cr1     .XZZ     -0.00000   0.00000  -0.00064   0.00064   0.00000
   50 Cr1     .YZZ      0.00000   0.00064  -0.00000   0.00000  -0.00064
   51 Cr1     .YYZ      0.00175  -0.00000   0.00000   0.00000  -0.00000
   52 Cr1     .XYZ      0.00000   0.00000  -0.00000   0.00000   0.00000
   53 C2      .S       -0.00015   0.00008   0.00015   0.01161   0.00008
   54 C2      .S       -0.00087   0.00020   0.00015   0.01483   0.00020
   55 C2      .S        0.00450  -0.00121  -0.00250   0.03584  -0.00121
   56 C2      .S       -0.01302   0.00658   0.00031  -0.27788   0.00658
   57 C2      .S        0.00157   0.00479  -0.03006  -0.05936   0.00479
   58 C2      .X       -0.00138   0.00135   0.00210  -0.05217   0.00135
   59 C2      .Y       -0.00000  -0.00001   0.00000  -0.00000   0.00001
   60 C2      .Z       -0.00089   0.00000   0.00000   0.00000  -0.00000
   61 C2      .X        0.00442   0.00753  -0.00776  -0.26273   0.00753
   62 C2      .Y        0.00000   0.00417  -0.00000   0.00000  -0.00417
   63 C2      .Z        0.00268   0.00000  -0.00000  -0.00000   0.00000
   64 C2      .X        0.00502   0.00509  -0.00026  -0.19473   0.00509
   65 C2      .Y        0.00000   0.00163  -0.00000  -0.00000  -0.00163
   66 C2      .Z        0.01325  -0.00000   0.00000   0.00000  -0.00000
   67 C2      .XX      -0.00060   0.00024  -0.00016  -0.00902   0.00024
   68 C2      .YY       0.00090  -0.00003   0.00008   0.00451  -0.00003
   69 C2      .ZZ      -0.00030  -0.00021   0.00008   0.00451  -0.00021
   70 C2      .XY      -0.00000  -0.00018   0.00000  -0.00000   0.00018
   71 C2      .XZ       0.00003   0.00000  -0.00000  -0.00000   0.00000
   72 C2      .YZ       0.00000   0.00000  -0.00000  -0.00000   0.00000
   73 C2      .XX       0.00029   0.00051   0.00154  -0.02059   0.00051
   74 C2      .YY      -0.00157   0.00021  -0.00077   0.01029   0.00021
   75 C2      .ZZ       0.00128  -0.00071  -0.00077   0.01029  -0.00071
   76 C2      .XY       0.00000   0.00175  -0.00000  -0.00000  -0.00175
   77 C2      .XZ       0.00190   0.00000   0.00000   0.00000  -0.00000
   78 C2      .YZ      -0.00000  -0.00000   0.00000   0.00000  -0.00000
   79 C2      .XXX      0.00008   0.00056  -0.00006  -0.00092   0.00056
   80 C2      .YYY      0.00000   0.00044  -0.00000   0.00000  -0.00044
   81 C2      .ZZZ      0.00067  -0.00000   0.00000   0.00000  -0.00000
   82 C2      .XYY     -0.00017   0.00060  -0.00016  -0.00246   0.00060
   83 C2      .XXY      0.00000   0.00053  -0.00000   0.00000  -0.00053
   84 C2      .XXZ      0.00042  -0.00000   0.00000   0.00000  -0.00000
   85 C2      .XZZ      0.00058   0.00030   0.00016   0.00246   0.00030
   86 C2      .YZZ      0.00000   0.00013  -0.00000  -0.00000  -0.00013
   87 C2      .YYZ      0.00042  -0.00000   0.00000   0.00000  -0.00000
   88 C2      .XYZ      0.00000   0.00000  -0.00000  -0.00000   0.00000
   89 C3      .S       -0.00015   0.00015   0.00008   0.00008   0.01161
   90 C3      .S       -0.00087   0.00015   0.00020   0.00020   0.01483
   91 C3      .S        0.00450  -0.00250  -0.00121  -0.00121   0.03584
   92 C3      .S       -0.01302   0.00031   0.00658   0.00658  -0.27788
   93 C3      .S        0.00157  -0.03006   0.00479   0.00479  -0.05936
   94 C3      .X        0.00000  -0.00000   0.00001  -0.00001   0.00000
   95 C3      .Y        0.00138  -0.00210  -0.00135  -0.00135   0.05217
   96 C3      .Z       -0.00089   0.00000   0.00000   0.00000  -0.00000
   97 C3      .X       -0.00000   0.00000  -0.00417   0.00417  -0.00000
   98 C3      .Y       -0.00442   0.00776  -0.00753  -0.00753   0.26273
   99 C3      .Z        0.00268   0.00000  -0.00000  -0.00000   0.00000
  100 C3      .X       -0.00000  -0.00000  -0.00163   0.00163   0.00000
  101 C3      .Y       -0.00502   0.00026  -0.00509  -0.00509   0.19473
  102 C3      .Z        0.01325  -0.00000   0.00000  -0.00000  -0.00000
  103 C3      .XX       0.00090   0.00008  -0.00003  -0.00003   0.00451
  104 C3      .YY      -0.00060  -0.00016   0.00024   0.00024  -0.00902
  105 C3      .ZZ      -0.00030   0.00008  -0.00021  -0.00021   0.00451
  106 C3      .XY      -0.00000   0.00000  -0.00018   0.00018  -0.00000
  107 C3      .XZ       0.00000   0.00000   0.00000   0.00000   0.00000
  108 C3      .YZ      -0.00003  -0.00000   0.00000   0.00000  -0.00000
  109 C3      .XX      -0.00157  -0.00077   0.00021   0.00021   0.01029
  110 C3      .YY       0.00029   0.00154   0.00051   0.00051  -0.02059
  111 C3      .ZZ       0.00128  -0.00077  -0.00071  -0.00071   0.01029
  112 C3      .XY       0.00000  -0.00000   0.00175  -0.00175   0.00000
  113 C3      .XZ      -0.00000  -0.00000  -0.00000  -0.00000  -0.00000
  114 C3      .YZ      -0.00190   0.00000  -0.00000  -0.00000   0.00000
  115 C3      .XXX     -0.00000  -0.00000   0.00030  -0.00030   0.00000
  116 C3      .YYY     -0.00056  -0.00024   0.00022   0.00022  -0.00367
  117 C3      .ZZZ      0.00067  -0.00000   0.00000  -0.00000  -0.00000
  118 C3      .XYY     -0.00000  -0.00000   0.00046  -0.00046   0.00000
  119 C3      .XXY     -0.00046  -0.00024   0.00044   0.00044  -0.00369
  120 C3      .XXZ      0.00049  -0.00000  -0.00000  -0.00000  -0.00000
  121 C3      .XZZ     -0.00000   0.00000  -0.00013   0.00013   0.00000
  122 C3      .YZZ     -0.00058  -0.00016  -0.00030  -0.00030  -0.00246
  123 C3      .YYZ      0.00049  -0.00000  -0.00000  -0.00000  -0.00000
  124 C3      .XYZ     -0.00000  -0.00000  -0.00000  -0.00000  -0.00000
  125 C4      .S       -0.00015   0.00008   0.01161   0.00015   0.00008
  126 C4      .S       -0.00087   0.00020   0.01483   0.00015   0.00020
  127 C4      .S        0.00450  -0.00121   0.03584  -0.00250  -0.00121
  128 C4      .S       -0.01302   0.00658  -0.27788   0.00031   0.00658
  129 C4      .S        0.00157   0.00479  -0.05936  -0.03006   0.00479
  130 C4      .X        0.00138  -0.00135   0.05217  -0.00210  -0.00135
  131 C4      .Y       -0.00000  -0.00001   0.00000  -0.00000   0.00001
  132 C4      .Z       -0.00089  -0.00000   0.00000   0.00000  -0.00000
  133 C4      .X       -0.00442  -0.00753   0.26273   0.00776  -0.00753
  134 C4      .Y        0.00000   0.00417  -0.00000   0.00000  -0.00417
  135 C4      .Z        0.00268   0.00000  -0.00000  -0.00000   0.00000
  136 C4      .X       -0.00502  -0.00509   0.19473   0.00026  -0.00509
  137 C4      .Y        0.00000   0.00163   0.00000   0.00000  -0.00163
  138 C4      .Z        0.01325  -0.00000   0.00000  -0.00000  -0.00000
  139 C4      .XX      -0.00060   0.00024  -0.00902  -0.00016   0.00024
  140 C4      .YY       0.00090  -0.00003   0.00451   0.00008  -0.00003
  141 C4      .ZZ      -0.00030  -0.00021   0.00451   0.00008  -0.00021
  142 C4      .XY       0.00000   0.00018  -0.00000  -0.00000  -0.00018
  143 C4      .XZ      -0.00003  -0.00000   0.00000   0.00000  -0.00000
  144 C4      .YZ       0.00000   0.00000  -0.00000  -0.00000   0.00000
  145 C4      .XX       0.00029   0.00051  -0.02059   0.00154   0.00051
  146 C4      .YY      -0.00157   0.00021   0.01029  -0.00077   0.00021
  147 C4      .ZZ       0.00128  -0.00071   0.01029  -0.00077  -0.00071
  148 C4      .XY      -0.00000  -0.00175   0.00000  -0.00000   0.00175
  149 C4      .XZ      -0.00190   0.00000  -0.00000  -0.00000   0.00000
  150 C4      .YZ      -0.00000  -0.00000   0.00000   0.00000  -0.00000
  151 C4      .XXX     -0.00008  -0.00056   0.00092   0.00006  -0.00056
  152 C4      .YYY      0.00000   0.00044  -0.00000   0.00000  -0.00044
  153 C4      .ZZZ      0.00067  -0.00000  -0.00000   0.00000  -0.00000
  154 C4      .XYY      0.00017  -0.00060   0.00246   0.00016  -0.00060
  155 C4      .XXY      0.00000   0.00053  -0.00000   0.00000  -0.00053
  156 C4      .XXZ      0.00042  -0.00000   0.00000  -0.00000  -0.00000
  157 C4      .XZZ     -0.00058  -0.00030  -0.00246  -0.00016  -0.00030
  158 C4      .YZZ      0.00000   0.00013  -0.00000  -0.00000  -0.00013
  159 C4      .YYZ      0.00042  -0.00000   0.00000  -0.00000  -0.00000
  160 C4      .XYZ     -0.00000  -0.00000   0.00000   0.00000  -0.00000
  161 C5      .S       -0.00015   0.01161   0.00008   0.00008   0.00015
  162 C5      .S       -0.00087   0.01483   0.00020   0.00020   0.00015
  163 C5      .S        0.00450   0.03584  -0.00121  -0.00121  -0.00250
  164 C5      .S       -0.01302  -0.27788   0.00658   0.00658   0.00031
  165 C5      .S        0.00157  -0.05936   0.00479   0.00479  -0.03006
  166 C5      .X        0.00000  -0.00000   0.00001  -0.00001   0.00000
  167 C5      .Y       -0.00138  -0.05217   0.00135   0.00135   0.00210
  168 C5      .Z       -0.00089  -0.00000   0.00000   0.00000  -0.00000
  169 C5      .X       -0.00000   0.00000  -0.00417   0.00417  -0.00000
  170 C5      .Y        0.00442  -0.26273   0.00753   0.00753  -0.00776
  171 C5      .Z        0.00268   0.00000  -0.00000  -0.00000   0.00000
  172 C5      .X        0.00000  -0.00000  -0.00163   0.00163  -0.00000
  173 C5      .Y        0.00502  -0.19473   0.00509   0.00509  -0.00026
  174 C5      .Z        0.01325  -0.00000   0.00000   0.00000  -0.00000
  175 C5      .XX       0.00090   0.00451  -0.00003  -0.00003   0.00008
  176 C5      .YY      -0.00060  -0.00902   0.00024   0.00024  -0.00016
  177 C5      .ZZ      -0.00030   0.00451  -0.00021  -0.00021   0.00008
  178 C5      .XY       0.00000  -0.00000   0.00018  -0.00018   0.00000
  179 C5      .XZ       0.00000   0.00000   0.00000   0.00000   0.00000
  180 C5      .YZ       0.00003  -0.00000  -0.00000  -0.00000   0.00000
  181 C5      .XX      -0.00157   0.01029   0.00021   0.00021  -0.00077
  182 C5      .YY       0.00029  -0.02059   0.00051   0.00051   0.00154
  183 C5      .ZZ       0.00128   0.01029  -0.00071  -0.00071  -0.00077
  184 C5      .XY       0.00000   0.00000  -0.00175   0.00175  -0.00000
  185 C5      .XZ      -0.00000  -0.00000  -0.00000  -0.00000  -0.00000
  186 C5      .YZ       0.00190   0.00000   0.00000  -0.00000  -0.00000
  187 C5      .XXX      0.00000  -0.00000   0.00030  -0.00030  -0.00000
  188 C5      .YYY      0.00056   0.00367  -0.00022  -0.00022   0.00024
  189 C5      .ZZZ      0.00067  -0.00000   0.00000   0.00000  -0.00000
  190 C5      .XYY      0.00000  -0.00000   0.00046  -0.00046  -0.00000
  191 C5      .XXY      0.00046   0.00369  -0.00044  -0.00044   0.00024
  192 C5      .XXZ      0.00049  -0.00000   0.00000   0.00000  -0.00000
  193 C5      .XZZ     -0.00000   0.00000  -0.00013   0.00013  -0.00000
  194 C5      .YZZ      0.00058   0.00246   0.00030   0.00030   0.00016
  195 C5      .YYZ      0.00049  -0.00000   0.00000   0.00000  -0.00000
  196 C5      .XYZ      0.00000   0.00000   0.00000   0.00000   0.00000
  197 C6      .S       -0.01644   0.00008   0.00008   0.00008   0.00008
  198 C6      .S       -0.07273   0.00020   0.00020   0.00020   0.00020
  199 C6      .S        0.21688  -0.00121  -0.00121  -0.00121  -0.00121
  200 C6      .S        0.09668   0.00658   0.00658   0.00658   0.00658
  201 C6      .S       -0.13724   0.00479   0.00479   0.00479   0.00479
  202 C6      .X        0.00000  -0.00000   0.00001  -0.00001   0.00000
  203 C6      .Y       -0.00000  -0.00001  -0.00000  -0.00000   0.00001
  204 C6      .Z        0.25445   0.00135   0.00135   0.00135   0.00135
  205 C6      .X       -0.00000   0.00000  -0.00417   0.00417  -0.00000
  206 C6      .Y        0.00000   0.00417  -0.00000   0.00000  -0.00417
  207 C6      .Z        0.15474   0.00753   0.00753   0.00753   0.00753
  208 C6      .X       -0.00000  -0.00000  -0.00163   0.00163  -0.00000
  209 C6      .Y        0.00000   0.00163   0.00000   0.00000  -0.00163
  210 C6      .Z        0.02823   0.00509   0.00509   0.00509   0.00509
  211 C6      .XX      -0.01893  -0.00021  -0.00003  -0.00003  -0.00021
  212 C6      .YY      -0.01893  -0.00003  -0.00021  -0.00021  -0.00003
  213 C6      .ZZ       0.03785   0.00024   0.00024   0.00024   0.00024
  214 C6      .XY       0.00000   0.00000  -0.00000   0.00000   0.00000
  215 C6      .XZ      -0.00000   0.00000  -0.00018   0.00018  -0.00000
  216 C6      .YZ       0.00000   0.00018  -0.00000   0.00000  -0.00018
  217 C6      .XX       0.00016  -0.00071   0.00021   0.00021  -0.00071
  218 C6      .YY       0.00016   0.00021  -0.00071  -0.00071   0.00021
  219 C6      .ZZ      -0.00033   0.00051   0.00051   0.00051   0.00051
  220 C6      .XY      -0.00000   0.00000   0.00000   0.00000  -0.00000
  221 C6      .XZ       0.00000  -0.00000   0.00175  -0.00175   0.00000
  222 C6      .YZ      -0.00000  -0.00175   0.00000  -0.00000   0.00175
  223 C6      .XXX      0.00000  -0.00000  -0.00008   0.00008   0.00000
  224 C6      .YYY      0.00000   0.00044   0.00000   0.00000  -0.00044
  225 C6      .ZZZ      0.01627   0.00022   0.00022   0.00022   0.00022
  226 C6      .XYY      0.00000  -0.00000   0.00013  -0.00013   0.00000
  227 C6      .XXY      0.00000   0.00036   0.00000   0.00000  -0.00036
  228 C6      .XXZ      0.01091   0.00060  -0.00030  -0.00030   0.00060
  229 C6      .XZZ     -0.00000   0.00000  -0.00046   0.00046   0.00000
  230 C6      .YZZ      0.00000   0.00046   0.00000   0.00000  -0.00046
  231 C6      .YYZ      0.01091   0.00060  -0.00030  -0.00030   0.00060
  232 C6      .XYZ     -0.00000   0.00000   0.00000  -0.00000  -0.00000
  233 C7      .S        0.00074   0.00008   0.00008   0.00008   0.00008
  234 C7      .S       -0.00022   0.00020   0.00020   0.00020   0.00020
  235 C7      .S        0.00597  -0.00121  -0.00121  -0.00121  -0.00121
  236 C7      .S       -0.02799   0.00658   0.00658   0.00658   0.00658
  237 C7      .S        0.00162   0.00479   0.00479   0.00479   0.00479
  238 C7      .X       -0.00000  -0.00000   0.00001  -0.00001   0.00000
  239 C7      .Y       -0.00000  -0.00001   0.00000  -0.00000   0.00001
  240 C7      .Z       -0.00285  -0.00135  -0.00135  -0.00135  -0.00135
  241 C7      .X       -0.00000   0.00000  -0.00417   0.00417  -0.00000
  242 C7      .Y        0.00000   0.00417  -0.00000  -0.00000  -0.00417
  243 C7      .Z       -0.00256  -0.00753  -0.00753  -0.00753  -0.00753
  244 C7      .X        0.00000  -0.00000  -0.00163   0.00163  -0.00000
  245 C7      .Y        0.00000   0.00163  -0.00000  -0.00000  -0.00163
  246 C7      .Z        0.01074  -0.00509  -0.00509  -0.00509  -0.00509
  247 C7      .XX      -0.00002  -0.00021  -0.00003  -0.00003  -0.00021
  248 C7      .YY      -0.00002  -0.00003  -0.00021  -0.00021  -0.00003
  249 C7      .ZZ       0.00005   0.00024   0.00024   0.00024   0.00024
  250 C7      .XY       0.00000  -0.00000  -0.00000  -0.00000   0.00000
  251 C7      .XZ      -0.00000  -0.00000   0.00018  -0.00018   0.00000
  252 C7      .YZ      -0.00000  -0.00018   0.00000   0.00000   0.00018
  253 C7      .XX       0.00045  -0.00071   0.00021   0.00021  -0.00071
  254 C7      .YY       0.00045   0.00021  -0.00071  -0.00071   0.00021
  255 C7      .ZZ      -0.00091   0.00051   0.00051   0.00051   0.00051
  256 C7      .XY      -0.00000   0.00000   0.00000   0.00000  -0.00000
  257 C7      .XZ       0.00000   0.00000  -0.00175   0.00175   0.00000
  258 C7      .YZ       0.00000   0.00175  -0.00000  -0.00000  -0.00175
  259 C7      .XXX     -0.00000  -0.00000  -0.00008   0.00008  -0.00000
  260 C7      .YYY      0.00000   0.00044  -0.00000   0.00000  -0.00044
  261 C7      .ZZZ     -0.00074  -0.00022  -0.00022  -0.00022  -0.00022
  262 C7      .XYY     -0.00000  -0.00000   0.00013  -0.00013  -0.00000
  263 C7      .XXY      0.00000   0.00036  -0.00000  -0.00000  -0.00036
  264 C7      .XXZ     -0.00050  -0.00060   0.00030   0.00030  -0.00060
  265 C7      .XZZ     -0.00000   0.00000  -0.00046   0.00046  -0.00000
  266 C7      .YZZ      0.00000   0.00046   0.00000   0.00000  -0.00046
  267 C7      .YYZ     -0.00050  -0.00060   0.00030   0.00030  -0.00060
  268 C7      .XYZ      0.00000  -0.00000  -0.00000  -0.00000   0.00000
  269 O8      .S        0.00006   0.00008  -0.00001  -0.04131   0.00008
  270 O8      .S        0.00044   0.00053  -0.00034  -0.14409   0.00053
  271 O8      .S       -0.00174  -0.00146   0.00133   0.32328  -0.00146
  272 O8      .S        0.00108  -0.00140  -0.00079   0.41660  -0.00140
  273 O8      .S       -0.00164  -0.01018   0.00840   0.54538  -0.01018
  274 O8      .X        0.00075   0.00024   0.00017   0.33871   0.00024
  275 O8      .Y       -0.00000  -0.00036   0.00000   0.00000   0.00036
  276 O8      .Z       -0.00015   0.00000   0.00000   0.00000   0.00000
  277 O8      .X       -0.00141   0.00245  -0.00125   0.21929   0.00245
  278 O8      .Y        0.00000  -0.00011  -0.00000  -0.00000   0.00011
  279 O8      .Z       -0.00055  -0.00000  -0.00000  -0.00000   0.00000
  280 O8      .X       -0.00045   0.00213  -0.00481   0.06160   0.00213
  281 O8      .Y        0.00000  -0.00033  -0.00000   0.00000   0.00033
  282 O8      .Z       -0.00507   0.00000  -0.00000  -0.00000   0.00000
  283 O8      .XX       0.00007  -0.00006   0.00002  -0.00645  -0.00006
  284 O8      .YY      -0.00006   0.00005  -0.00001   0.00322   0.00005
  285 O8      .ZZ      -0.00001   0.00000  -0.00001   0.00322   0.00000
  286 O8      .XY      -0.00000   0.00000   0.00000   0.00000  -0.00000
  287 O8      .XZ      -0.00018   0.00000  -0.00000   0.00000   0.00000
  288 O8      .YZ      -0.00000  -0.00000  -0.00000   0.00000   0.00000
  289 O8      .XX       0.00052  -0.00024   0.00047  -0.01559  -0.00024
  290 O8      .YY       0.00017   0.00004  -0.00024   0.00779   0.00004
  291 O8      .ZZ      -0.00068   0.00021  -0.00024   0.00779   0.00021
  292 O8      .XY       0.00000  -0.00020  -0.00000  -0.00000   0.00020
  293 O8      .XZ       0.00065   0.00000   0.00000  -0.00000  -0.00000
  294 O8      .YZ       0.00000   0.00000  -0.00000  -0.00000   0.00000
  295 O8      .XXX      0.00009   0.00008  -0.00002   0.00035   0.00008
  296 O8      .YYY     -0.00000  -0.00009  -0.00000  -0.00000   0.00009
  297 O8      .ZZZ     -0.00008   0.00000  -0.00000  -0.00000   0.00000
  298 O8      .XYY      0.00007   0.00006  -0.00006   0.00095   0.00006
  299 O8      .XXY     -0.00000  -0.00012  -0.00000  -0.00000   0.00012
  300 O8      .XXZ      0.00001  -0.00000  -0.00000   0.00000  -0.00000
  301 O8      .XZZ      0.00011   0.00008   0.00006  -0.00095   0.00008
  302 O8      .YZZ      0.00000   0.00002  -0.00000   0.00000  -0.00002
  303 O8      .YYZ      0.00001  -0.00000  -0.00000   0.00000  -0.00000
  304 O8      .XYZ      0.00000  -0.00000  -0.00000  -0.00000   0.00000
  305 O9      .S        0.00006  -0.00001   0.00008   0.00008  -0.04131
  306 O9      .S        0.00044  -0.00034   0.00053   0.00053  -0.14409
  307 O9      .S       -0.00174   0.00133  -0.00146  -0.00146   0.32328
  308 O9      .S        0.00108  -0.00079  -0.00140  -0.00140   0.41660
  309 O9      .S       -0.00164   0.00840  -0.01018  -0.01018   0.54538
  310 O9      .X        0.00000   0.00000   0.00036  -0.00036  -0.00000
  311 O9      .Y       -0.00075  -0.00017  -0.00024  -0.00024  -0.33871
  312 O9      .Z       -0.00015  -0.00000   0.00000   0.00000  -0.00000
  313 O9      .X       -0.00000  -0.00000   0.00011  -0.00011   0.00000
  314 O9      .Y        0.00141   0.00125  -0.00245  -0.00245  -0.21929
  315 O9      .Z       -0.00055   0.00000  -0.00000  -0.00000   0.00000
  316 O9      .X        0.00000   0.00000   0.00033  -0.00033  -0.00000
  317 O9      .Y        0.00045   0.00481  -0.00213  -0.00213  -0.06160
  318 O9      .Z       -0.00507   0.00000  -0.00000   0.00000   0.00000
  319 O9      .XX      -0.00006  -0.00001   0.00005   0.00005   0.00322
  320 O9      .YY       0.00007   0.00002  -0.00006  -0.00006  -0.00645
  321 O9      .ZZ      -0.00001  -0.00001   0.00000   0.00000   0.00322
  322 O9      .XY      -0.00000   0.00000   0.00000  -0.00000  -0.00000
  323 O9      .XZ      -0.00000  -0.00000  -0.00000  -0.00000  -0.00000
  324 O9      .YZ       0.00018  -0.00000   0.00000   0.00000  -0.00000
  325 O9      .XX       0.00017  -0.00024   0.00004   0.00004   0.00779
  326 O9      .YY       0.00052   0.00047  -0.00024  -0.00024  -0.01559
  327 O9      .ZZ      -0.00068  -0.00024   0.00021   0.00021   0.00779
  328 O9      .XY       0.00000  -0.00000  -0.00020   0.00020  -0.00000
  329 O9      .XZ       0.00000   0.00000   0.00000   0.00000   0.00000
  330 O9      .YZ      -0.00065   0.00000  -0.00000  -0.00000   0.00000
  331 O9      .XXX      0.00000   0.00000  -0.00011   0.00011  -0.00000
  332 O9      .YYY     -0.00003  -0.00009  -0.00001  -0.00001   0.00141
  333 O9      .ZZZ     -0.00008  -0.00000  -0.00000   0.00000   0.00000
  334 O9      .XYY      0.00000   0.00000  -0.00013   0.00013  -0.00000
  335 O9      .XXY      0.00001  -0.00010   0.00002   0.00002   0.00142
  336 O9      .XXZ     -0.00012  -0.00000   0.00000   0.00000   0.00000
  337 O9      .XZZ      0.00000   0.00000  -0.00002   0.00002  -0.00000
  338 O9      .YZZ     -0.00011  -0.00006  -0.00008  -0.00008   0.00095
  339 O9      .YYZ     -0.00012  -0.00000   0.00000   0.00000   0.00000
  340 O9      .XYZ     -0.00000  -0.00000  -0.00000  -0.00000  -0.00000
  341 O10     .S        0.00006   0.00008  -0.04131  -0.00001   0.00008
  342 O10     .S        0.00044   0.00053  -0.14409  -0.00034   0.00053
  343 O10     .S       -0.00174  -0.00146   0.32328   0.00133  -0.00146
  344 O10     .S        0.00108  -0.00140   0.41660  -0.00079  -0.00140
  345 O10     .S       -0.00164  -0.01018   0.54538   0.00840  -0.01018
  346 O10     .X       -0.00075  -0.00024  -0.33871  -0.00017  -0.00024
  347 O10     .Y       -0.00000  -0.00036  -0.00000  -0.00000   0.00036
  348 O10     .Z       -0.00015  -0.00000   0.00000  -0.00000  -0.00000
  349 O10     .X        0.00141  -0.00245  -0.21929   0.00125  -0.00245
  350 O10     .Y        0.00000  -0.00011  -0.00000   0.00000   0.00011
  351 O10     .Z       -0.00055   0.00000  -0.00000  -0.00000   0.00000
  352 O10     .X        0.00045  -0.00213  -0.06160   0.00481  -0.00213
  353 O10     .Y       -0.00000  -0.00033  -0.00000  -0.00000   0.00033
  354 O10     .Z       -0.00507   0.00000  -0.00000   0.00000   0.00000
  355 O10     .XX       0.00007  -0.00006  -0.00645   0.00002  -0.00006
  356 O10     .YY      -0.00006   0.00005   0.00322  -0.00001   0.00005
  357 O10     .ZZ      -0.00001   0.00000   0.00322  -0.00001   0.00000
  358 O10     .XY       0.00000  -0.00000  -0.00000  -0.00000   0.00000
  359 O10     .XZ       0.00018  -0.00000   0.00000  -0.00000  -0.00000
  360 O10     .YZ      -0.00000  -0.00000   0.00000   0.00000  -0.00000
  361 O10     .XX       0.00052  -0.00024  -0.01559   0.00047  -0.00024
  362 O10     .YY       0.00017   0.00004   0.00779  -0.00024   0.00004
  363 O10     .ZZ      -0.00068   0.00021   0.00779  -0.00024   0.00021
  364 O10     .XY      -0.00000   0.00020   0.00000   0.00000  -0.00020
  365 O10     .XZ      -0.00065   0.00000  -0.00000   0.00000   0.00000
  366 O10     .YZ       0.00000   0.00000   0.00000  -0.00000   0.00000
  367 O10     .XXX     -0.00009  -0.00008  -0.00035   0.00002  -0.00008
  368 O10     .YYY     -0.00000  -0.00009   0.00000   0.00000   0.00009
  369 O10     .ZZZ     -0.00008  -0.00000   0.00000  -0.00000   0.00000
  370 O10     .XYY     -0.00007  -0.00006  -0.00095   0.00006  -0.00006
  371 O10     .XXY      0.00000  -0.00012   0.00000   0.00000   0.00012
  372 O10     .XXZ      0.00001   0.00000  -0.00000   0.00000  -0.00000
  373 O10     .XZZ     -0.00011  -0.00008   0.00095  -0.00006  -0.00008
  374 O10     .YZZ     -0.00000   0.00002  -0.00000  -0.00000  -0.00002
  375 O10     .YYZ      0.00001   0.00000  -0.00000   0.00000  -0.00000
  376 O10     .XYZ     -0.00000  -0.00000   0.00000   0.00000  -0.00000
  377 O11     .S        0.00006  -0.04131   0.00008   0.00008  -0.00001
  378 O11     .S        0.00044  -0.14409   0.00053   0.00053  -0.00034
  379 O11     .S       -0.00174   0.32328  -0.00146  -0.00146   0.00133
  380 O11     .S        0.00108   0.41660  -0.00140  -0.00140  -0.00079
  381 O11     .S       -0.00164   0.54538  -0.01018  -0.01018   0.00840
  382 O11     .X        0.00000   0.00000   0.00036  -0.00036   0.00000
  383 O11     .Y        0.00075   0.33871   0.00024   0.00024   0.00017
  384 O11     .Z       -0.00015   0.00000   0.00000  -0.00000   0.00000
  385 O11     .X        0.00000   0.00000   0.00011  -0.00011  -0.00000
  386 O11     .Y       -0.00141   0.21929   0.00245   0.00245  -0.00125
  387 O11     .Z       -0.00055  -0.00000  -0.00000   0.00000  -0.00000
  388 O11     .X       -0.00000   0.00000   0.00033  -0.00033   0.00000
  389 O11     .Y       -0.00045   0.06160   0.00213   0.00213  -0.00481
  390 O11     .Z       -0.00507   0.00000  -0.00000  -0.00000   0.00000
  391 O11     .XX      -0.00006   0.00322   0.00005   0.00005  -0.00001
[...]
  424 O12     .X       -0.00000   0.08166  -0.00000  -0.00000  -0.00000
  425 O12     .Y       -0.00000  -0.00000  -0.08166   0.08166   0.00000
  426 O12     .Z       -1.77337   0.04736   0.04736   0.04736  -0.16273
  427 O12     .XX       0.01178   0.00078   0.00006   0.00006   0.00082
  428 O12     .YY       0.01178   0.00006   0.00078   0.00078   0.00082
  429 O12     .ZZ      -0.02355  -0.00084  -0.00084  -0.00084  -0.00165
  430 O12     .XY       0.00000  -0.00000   0.00000  -0.00000   0.00000
  431 O12     .XZ      -0.00000   0.00219  -0.00000  -0.00000  -0.00000
  432 O12     .YZ      -0.00000  -0.00000  -0.00219   0.00219   0.00000
  433 O12     .XX      -0.08023   0.00107   0.00032   0.00032  -0.01023
  434 O12     .YY      -0.08023   0.00032   0.00107   0.00107  -0.01023
  435 O12     .ZZ       0.16046  -0.00138  -0.00138  -0.00138   0.02045
  436 O12     .XY       0.00000   0.00000   0.00000   0.00000  -0.00000
  437 O12     .XZ       0.00000  -0.02686  -0.00000   0.00000  -0.00000
  438 O12     .YZ      -0.00000   0.00000   0.02686  -0.02686   0.00000
  439 O12     .XXX      0.00000   0.00082   0.00000  -0.00000   0.00000
  440 O12     .YYY      0.00000  -0.00000  -0.00116   0.00116  -0.00000
  441 O12     .ZZZ      0.00111  -0.00031  -0.00031  -0.00031  -0.00147
  442 O12     .XYY      0.00000   0.00022   0.00000  -0.00000   0.00000
  443 O12     .XXY      0.00000  -0.00000  -0.00067   0.00067  -0.00000
  444 O12     .XXZ      0.00075  -0.00130   0.00089   0.00089  -0.00099
  445 O12     .XZZ      0.00000   0.00177   0.00000  -0.00000  -0.00000
  446 O12     .YZZ      0.00000  -0.00000  -0.00177   0.00177  -0.00000
  447 O12     .YYZ      0.00075  -0.00130   0.00089   0.00089  -0.00099
  448 O12     .XYZ      0.00000   0.00000  -0.00000  -0.00000   0.00000
  449 O13     .S        0.00085  -0.00047  -0.00047  -0.00047   0.06739
  450 O13     .S       -0.00911   0.00722   0.00722   0.00722  -0.03655
  451 O13     .S        0.04468  -0.03358  -0.03358  -0.03358   0.41923
  452 O13     .S       -0.09729   0.04769   0.04769   0.04769  -1.65555
  453 O13     .S        0.38897  -0.32581  -0.32581  -0.32581   9.29094
  454 O13     .X        0.00000   0.00697  -0.00000   0.00000  -0.00000
  455 O13     .Y        0.00000   0.00000  -0.00697   0.00697  -0.00000
  456 O13     .Z       -0.00811  -0.00545  -0.00545  -0.00545  -0.01976
  457 O13     .X       -0.00000   0.01199  -0.00000  -0.00000   0.00000
  458 O13     .Y       -0.00000  -0.00000  -0.01199   0.01199   0.00000
  459 O13     .Z        0.02065  -0.03773  -0.03773  -0.03773   1.68561
  460 O13     .X       -0.00000   0.08166  -0.00000  -0.00000  -0.00000
  461 O13     .Y       -0.00000   0.00000  -0.08166   0.08166   0.00000
  462 O13     .Z        0.16273  -0.04736  -0.04736  -0.04736   1.77337
  463 O13     .XX       0.00082   0.00078   0.00006   0.00006   0.01178
  464 O13     .YY       0.00082   0.00006   0.00078   0.00078   0.01178
  465 O13     .ZZ      -0.00165  -0.00084  -0.00084  -0.00084  -0.02355
  466 O13     .XY      -0.00000   0.00000   0.00000   0.00000   0.00000
  467 O13     .XZ       0.00000  -0.00219   0.00000   0.00000  -0.00000
  468 O13     .YZ       0.00000   0.00000   0.00219  -0.00219  -0.00000
  469 O13     .XX      -0.01023   0.00107   0.00032   0.00032  -0.08023
  470 O13     .YY      -0.01023   0.00032   0.00107   0.00107  -0.08023
  471 O13     .ZZ       0.02045  -0.00138  -0.00138  -0.00138   0.16046
  472 O13     .XY       0.00000  -0.00000   0.00000  -0.00000  -0.00000
  473 O13     .XZ      -0.00000   0.02686  -0.00000  -0.00000   0.00000
  474 O13     .YZ      -0.00000  -0.00000  -0.02686   0.02686   0.00000
  475 O13     .XXX      0.00000   0.00082   0.00000  -0.00000   0.00000
  476 O13     .YYY     -0.00000   0.00000  -0.00116   0.00116   0.00000
  477 O13     .ZZZ      0.00147   0.00031   0.00031   0.00031  -0.00111
  478 O13     .XYY      0.00000   0.00022   0.00000   0.00000   0.00000
  479 O13     .XXY     -0.00000   0.00000  -0.00067   0.00067   0.00000
  480 O13     .XXZ      0.00099   0.00130  -0.00089  -0.00089  -0.00075
  481 O13     .XZZ      0.00000   0.00177   0.00000  -0.00000   0.00000
  482 O13     .YZZ     -0.00000   0.00000  -0.00177   0.00177   0.00000
  483 O13     .YYZ      0.00099   0.00130  -0.00089  -0.00089  -0.00075
  484 O13     .XYZ     -0.00000   0.00000  -0.00000   0.00000  -0.00000
                          96
                           V    
     Eigenvalues --    28.53830
    1 Cr1     .S       -0.01334
    2 Cr1     .S        0.00085
    3 Cr1     .S       -0.18617
    4 Cr1     .S        0.29839
    5 Cr1     .S       -2.34355
    6 Cr1     .S        0.89812
    7 Cr1     .X        0.05004
    8 Cr1     .Y       -0.00000
    9 Cr1     .Z       -0.00000
   10 Cr1     .X       -0.17847
   11 Cr1     .Y        0.00000
   12 Cr1     .Z        0.00000
   13 Cr1     .X        0.29535
   14 Cr1     .Y       -0.00000
   15 Cr1     .Z       -0.00000
   16 Cr1     .X       -2.42559
   17 Cr1     .Y       -0.00000
   18 Cr1     .Z        0.00000
   19 Cr1     .XX      -0.09816
   20 Cr1     .YY       0.04908
   21 Cr1     .ZZ       0.04908
   22 Cr1     .XY      -0.00000
   23 Cr1     .XZ       0.00000
   24 Cr1     .YZ      -0.00000
   25 Cr1     .XX      -0.02760
   26 Cr1     .YY       0.01380
   27 Cr1     .ZZ       0.01380
   28 Cr1     .XY       0.00000
   29 Cr1     .XZ      -0.00000
   30 Cr1     .YZ       0.00000
   31 Cr1     .XX      -0.82320
   32 Cr1     .YY       0.41160
   33 Cr1     .ZZ       0.41160
   34 Cr1     .XY      -0.00000
   35 Cr1     .XZ       0.00000
   36 Cr1     .YZ      -0.00000
   37 Cr1     .XX       0.49082
   38 Cr1     .YY      -0.24541
   39 Cr1     .ZZ      -0.24541
   40 Cr1     .XY       0.00000
   41 Cr1     .XZ      -0.00000
   42 Cr1     .YZ      -0.00000
   43 Cr1     .XXX     -0.00301
   44 Cr1     .YYY      0.00000
   45 Cr1     .ZZZ      0.00000
   46 Cr1     .XYY     -0.00808
   47 Cr1     .XXY      0.00000
   48 Cr1     .XXZ      0.00000
   49 Cr1     .XZZ      0.00808
   50 Cr1     .YZZ      0.00000
   51 Cr1     .YYZ      0.00000
   52 Cr1     .XYZ     -0.00000
   53 C2      .S       -0.00231
   54 C2      .S        0.04068
   55 C2      .S        0.18895
   56 C2      .S       -3.50319
   57 C2      .S       -1.98270
   58 C2      .X        0.22769
   59 C2      .Y       -0.00000
   60 C2      .Z        0.00000
   61 C2      .X       -3.87625
   62 C2      .Y        0.00000
   63 C2      .Z       -0.00000
   64 C2      .X       -3.12677
   65 C2      .Y       -0.00000
   66 C2      .Z        0.00000
   67 C2      .XX      -0.12588
   68 C2      .YY       0.06294
   69 C2      .ZZ       0.06294
   70 C2      .XY       0.00000
   71 C2      .XZ      -0.00000
   72 C2      .YZ      -0.00000
   73 C2      .XX      -0.40377
   74 C2      .YY       0.20189
   75 C2      .ZZ       0.20189
   76 C2      .XY      -0.00000
   77 C2      .XZ       0.00000
   78 C2      .YZ       0.00000
   79 C2      .XXX     -0.01791
   80 C2      .YYY      0.00000
   81 C2      .ZZZ      0.00000
   82 C2      .XYY     -0.04806
   83 C2      .XXY      0.00000
   84 C2      .XXZ      0.00000
   85 C2      .XZZ      0.04806
   86 C2      .YZZ     -0.00000
   87 C2      .YYZ      0.00000
   88 C2      .XYZ     -0.00000
   89 C3      .S       -0.00244
   90 C3      .S        0.00138
   91 C3      .S       -0.01568
   92 C3      .S        0.04089
   93 C3      .S        0.19000
   94 C3      .X       -0.05196
   95 C3      .Y        0.02073
   96 C3      .Z        0.00000
   97 C3      .X        0.18664
   98 C3      .Y       -0.15835
   99 C3      .Z       -0.00000
  100 C3      .X        0.15613
  101 C3      .Y       -0.13618
  102 C3      .Z       -0.00000
  103 C3      .XX       0.00117
  104 C3      .YY       0.00208
  105 C3      .ZZ      -0.00325
  106 C3      .XY       0.00190
  107 C3      .XZ       0.00000
  108 C3      .YZ       0.00000
  109 C3      .XX      -0.00258
  110 C3      .YY       0.01404
  111 C3      .ZZ      -0.01146
  112 C3      .XY      -0.02298
  113 C3      .XZ      -0.00000
  114 C3      .YZ      -0.00000
  115 C3      .XXX     -0.00355
  116 C3      .YYY      0.00274
  117 C3      .ZZZ      0.00000
  118 C3      .XYY     -0.00599
  119 C3      .XXY      0.00593
  120 C3      .XXZ      0.00000
  121 C3      .XZZ      0.00246
  122 C3      .YZZ     -0.00451
  123 C3      .YYZ      0.00000
  124 C3      .XYZ     -0.00000
  125 C4      .S        0.00485
  126 C4      .S        0.00318
  127 C4      .S       -0.07485
  128 C4      .S        0.11369
  129 C4      .S       -1.01765
  130 C4      .X       -0.01865
  131 C4      .Y       -0.00000
  132 C4      .Z        0.00000
  133 C4      .X        0.15277
  134 C4      .Y        0.00000
  135 C4      .Z       -0.00000
  136 C4      .X        0.07194
  137 C4      .Y       -0.00000
  138 C4      .Z        0.00000
  139 C4      .XX      -0.00135
  140 C4      .YY       0.00068
  141 C4      .ZZ       0.00068
  142 C4      .XY       0.00000
  143 C4      .XZ       0.00000
  144 C4      .YZ      -0.00000
  145 C4      .XX       0.01536
  146 C4      .YY      -0.00768
  147 C4      .ZZ      -0.00768
  148 C4      .XY      -0.00000
  149 C4      .XZ      -0.00000
  150 C4      .YZ       0.00000
  151 C4      .XXX      0.00082
  152 C4      .YYY      0.00000
  153 C4      .ZZZ      0.00000
  154 C4      .XYY      0.00221
  155 C4      .XXY      0.00000
  156 C4      .XXZ      0.00000
  157 C4      .XZZ     -0.00221
  158 C4      .YZZ      0.00000
  159 C4      .YYZ      0.00000
  160 C4      .XYZ      0.00000
  161 C5      .S       -0.00244
  162 C5      .S        0.00138
  163 C5      .S       -0.01568
  164 C5      .S        0.04089
  165 C5      .S        0.19000
  166 C5      .X       -0.05196
  167 C5      .Y       -0.02073
  168 C5      .Z        0.00000
  169 C5      .X        0.18664
  170 C5      .Y        0.15835
  171 C5      .Z       -0.00000
  172 C5      .X        0.15613
  173 C5      .Y        0.13618
  174 C5      .Z        0.00000
  175 C5      .XX       0.00117
  176 C5      .YY       0.00208
  177 C5      .ZZ      -0.00325
  178 C5      .XY      -0.00190
  179 C5      .XZ      -0.00000
  180 C5      .YZ      -0.00000
  181 C5      .XX      -0.00258
  182 C5      .YY       0.01404
  183 C5      .ZZ      -0.01146
  184 C5      .XY       0.02298
  185 C5      .XZ       0.00000
  186 C5      .YZ       0.00000
  187 C5      .XXX     -0.00355
  188 C5      .YYY     -0.00274
  189 C5      .ZZZ      0.00000
  190 C5      .XYY     -0.00599
  191 C5      .XXY     -0.00593
  192 C5      .XXZ      0.00000
  193 C5      .XZZ      0.00246
  194 C5      .YZZ      0.00451
  195 C5      .YYZ      0.00000
  196 C5      .XYZ     -0.00000
  197 C6      .S       -0.00244
  198 C6      .S        0.00138
  199 C6      .S       -0.01568
  200 C6      .S        0.04089
  201 C6      .S        0.19000
  202 C6      .X       -0.05196
  203 C6      .Y       -0.00000
  204 C6      .Z       -0.02073
  205 C6      .X        0.18664
  206 C6      .Y        0.00000
  207 C6      .Z        0.15835
  208 C6      .X        0.15613
  209 C6      .Y        0.00000
  210 C6      .Z        0.13618
  211 C6      .XX       0.00117
  212 C6      .YY      -0.00325
  213 C6      .ZZ       0.00208
  214 C6      .XY       0.00000
  215 C6      .XZ       0.00190
  216 C6      .YZ       0.00000
  217 C6      .XX      -0.00258
  218 C6      .YY      -0.01146
  219 C6      .ZZ       0.01404
  220 C6      .XY       0.00000
  221 C6      .XZ      -0.02298
  222 C6      .YZ      -0.00000
  223 C6      .XXX      0.00040
  224 C6      .YYY     -0.00000
  225 C6      .ZZZ      0.00274
  226 C6      .XYY     -0.00246
  227 C6      .XXY      0.00000
  228 C6      .XXZ     -0.00451
  229 C6      .XZZ      0.00599
  230 C6      .YZZ     -0.00000
  231 C6      .YYZ     -0.00451
  232 C6      .XYZ      0.00000
  233 C7      .S       -0.00244
  234 C7      .S        0.00138
  235 C7      .S       -0.01568
  236 C7      .S        0.04089
  237 C7      .S        0.19000
  238 C7      .X       -0.05196
  239 C7      .Y       -0.00000
  240 C7      .Z        0.02073
  241 C7      .X        0.18664
  242 C7      .Y        0.00000
  243 C7      .Z       -0.15835
  244 C7      .X        0.15613
  245 C7      .Y       -0.00000
  246 C7      .Z       -0.13618
  247 C7      .XX       0.00117
  248 C7      .YY      -0.00325
  249 C7      .ZZ       0.00208
  250 C7      .XY      -0.00000
  251 C7      .XZ      -0.00190
  252 C7      .YZ      -0.00000
  253 C7      .XX      -0.00258
  254 C7      .YY      -0.01146
  255 C7      .ZZ       0.01404
  256 C7      .XY       0.00000
  257 C7      .XZ       0.02298
  258 C7      .YZ      -0.00000
  259 C7      .XXX      0.00040
  260 C7      .YYY      0.00000
  261 C7      .ZZZ     -0.00274
  262 C7      .XYY     -0.00246
  263 C7      .XXY      0.00000
  264 C7      .XXZ      0.00451
  265 C7      .XZZ      0.00599
  266 C7      .YZZ      0.00000
  267 C7      .YYZ      0.00451
  268 C7      .XYZ     -0.00000
  269 O8      .S        0.06739
  270 O8      .S       -0.03655
  271 O8      .S        0.41923
  272 O8      .S       -1.65555
  273 O8      .S        9.29094
  274 O8      .X        0.01976
  275 O8      .Y        0.00000
  276 O8      .Z        0.00000
  277 O8      .X       -1.68561
  278 O8      .Y       -0.00000
  279 O8      .Z       -0.00000
  280 O8      .X       -1.77337
  281 O8      .Y        0.00000
  282 O8      .Z        0.00000
  283 O8      .XX      -0.02355
  284 O8      .YY       0.01178
  285 O8      .ZZ       0.01178
  286 O8      .XY       0.00000
  287 O8      .XZ      -0.00000
  288 O8      .YZ       0.00000
  289 O8      .XX       0.16046
  290 O8      .YY      -0.08023
  291 O8      .ZZ      -0.08023
  292 O8      .XY      -0.00000
  293 O8      .XZ       0.00000
  294 O8      .YZ      -0.00000
  295 O8      .XXX      0.00028
  296 O8      .YYY     -0.00000
  297 O8      .ZZZ     -0.00000
  298 O8      .XYY      0.00075
  299 O8      .XXY     -0.00000
  300 O8      .XXZ     -0.00000
  301 O8      .XZZ     -0.00075
  302 O8      .YZZ      0.00000
  303 O8      .YYZ     -0.00000
  304 O8      .XYZ     -0.00000
  305 O9      .S       -0.00047
  306 O9      .S        0.00722
  307 O9      .S       -0.03358
  308 O9      .S        0.04769
  309 O9      .S       -0.32581
  310 O9      .X       -0.00697
  311 O9      .Y       -0.00545
  312 O9      .Z        0.00000
  313 O9      .X       -0.01199
  314 O9      .Y       -0.03773
  315 O9      .Z       -0.00000
  316 O9      .X       -0.08166
  317 O9      .Y       -0.04736
  318 O9      .Z       -0.00000
  319 O9      .XX       0.00078
  320 O9      .YY      -0.00084
  321 O9      .ZZ       0.00006
  322 O9      .XY      -0.00219
  323 O9      .XZ      -0.00000
  324 O9      .YZ       0.00000
  325 O9      .XX       0.00107
  326 O9      .YY      -0.00138
  327 O9      .ZZ       0.00032
  328 O9      .XY       0.02686
  329 O9      .XZ      -0.00000
  330 O9      .YZ      -0.00000
  331 O9      .XXX      0.00140
  332 O9      .YYY     -0.00031
  333 O9      .ZZZ     -0.00000
  334 O9      .XYY      0.00177
  335 O9      .XXY      0.00024
  336 O9      .XXZ     -0.00000
  337 O9      .XZZ      0.00022
  338 O9      .YZZ     -0.00130
  339 O9      .YYZ     -0.00000
  340 O9      .XYZ     -0.00000
  341 O10     .S        0.00085
  342 O10     .S       -0.00911
  343 O10     .S        0.04468
  344 O10     .S       -0.09729
  345 O10     .S        0.38897
  346 O10     .X       -0.00811
  347 O10     .Y       -0.00000
  348 O10     .Z        0.00000
  349 O10     .X        0.02065
  350 O10     .Y        0.00000
  351 O10     .Z       -0.00000
  352 O10     .X        0.16273
  353 O10     .Y       -0.00000
  354 O10     .Z       -0.00000
  355 O10     .XX      -0.00165
  356 O10     .YY       0.00082
  357 O10     .ZZ       0.00082
  358 O10     .XY      -0.00000
  359 O10     .XZ       0.00000
  360 O10     .YZ       0.00000
  361 O10     .XX       0.02045
  362 O10     .YY      -0.01023
  363 O10     .ZZ      -0.01023
  364 O10     .XY       0.00000
  365 O10     .XZ      -0.00000
  366 O10     .YZ      -0.00000
  367 O10     .XXX      0.00037
  368 O10     .YYY     -0.00000
  369 O10     .ZZZ     -0.00000
  370 O10     .XYY      0.00099
  371 O10     .XXY     -0.00000
  372 O10     .XXZ      0.00000
  373 O10     .XZZ     -0.00099
  374 O10     .YZZ     -0.00000
  375 O10     .YYZ      0.00000
  376 O10     .XYZ      0.00000
  377 O11     .S       -0.00047
  378 O11     .S        0.00722
  379 O11     .S       -0.03358
  380 O11     .S        0.04769
  381 O11     .S       -0.32581
  382 O11     .X       -0.00697
  383 O11     .Y        0.00545
  384 O11     .Z        0.00000
  385 O11     .X       -0.01199
  386 O11     .Y        0.03773
  387 O11     .Z       -0.00000
  388 O11     .X       -0.08166
  389 O11     .Y        0.04736
  390 O11     .Z       -0.00000
  391 O11     .XX       0.00078
  392 O11     .YY      -0.00084
  393 O11     .ZZ       0.00006
  394 O11     .XY       0.00219
  395 O11     .XZ      -0.00000
  396 O11     .YZ      -0.00000
  397 O11     .XX       0.00107
  398 O11     .YY      -0.00138
  399 O11     .ZZ       0.00032
  400 O11     .XY      -0.02686
  401 O11     .XZ       0.00000
  402 O11     .YZ      -0.00000
  403 O11     .XXX      0.00140
  404 O11     .YYY      0.00031
  405 O11     .ZZZ     -0.00000
  406 O11     .XYY      0.00177
  407 O11     .XXY     -0.00024
  408 O11     .XXZ     -0.00000
  409 O11     .XZZ      0.00022
  410 O11     .YZZ      0.00130
  411 O11     .YYZ     -0.00000
  412 O11     .XYZ     -0.00000
  413 O12     .S       -0.00047
  414 O12     .S        0.00722
  415 O12     .S       -0.03358
  416 O12     .S        0.04769
  417 O12     .S       -0.32581
  418 O12     .X       -0.00697
  419 O12     .Y       -0.00000
  420 O12     .Z        0.00545
  421 O12     .X       -0.01199
  422 O12     .Y        0.00000
  423 O12     .Z        0.03773
  424 O12     .X       -0.08166
  425 O12     .Y       -0.00000
  426 O12     .Z        0.04736
  427 O12     .XX       0.00078
  428 O12     .YY       0.00006
  429 O12     .ZZ      -0.00084
  430 O12     .XY       0.00000
  431 O12     .XZ      -0.00219
  432 O12     .YZ       0.00000
  433 O12     .XX       0.00107
  434 O12     .YY       0.00032
  435 O12     .ZZ      -0.00138
  436 O12     .XY      -0.00000
  437 O12     .XZ       0.02686
  438 O12     .YZ      -0.00000
  439 O12     .XXX     -0.00082
  440 O12     .YYY      0.00000
  441 O12     .ZZZ     -0.00031
  442 O12     .XYY     -0.00022
  443 O12     .XXY     -0.00000
  444 O12     .XXZ     -0.00130
  445 O12     .XZZ     -0.00177
  446 O12     .YZZ      0.00000
  447 O12     .YYZ     -0.00130
  448 O12     .XYZ     -0.00000
  449 O13     .S       -0.00047
  450 O13     .S        0.00722
  451 O13     .S       -0.03358
  452 O13     .S        0.04769
  453 O13     .S       -0.32581
  454 O13     .X       -0.00697
  455 O13     .Y        0.00000
  456 O13     .Z       -0.00545
  457 O13     .X       -0.01199
  458 O13     .Y       -0.00000
  459 O13     .Z       -0.03773
  460 O13     .X       -0.08166
  461 O13     .Y        0.00000
  462 O13     .Z       -0.04736
  463 O13     .XX       0.00078
  464 O13     .YY       0.00006
  465 O13     .ZZ      -0.00084
  466 O13     .XY       0.00000
  467 O13     .XZ       0.00219
  468 O13     .YZ       0.00000
  469 O13     .XX       0.00107
  470 O13     .YY       0.00032
  471 O13     .ZZ      -0.00138
  472 O13     .XY      -0.00000
  473 O13     .XZ      -0.02686
  474 O13     .YZ      -0.00000
  475 O13     .XXX     -0.00082
  476 O13     .YYY     -0.00000
  477 O13     .ZZZ      0.00031
  478 O13     .XYY     -0.00022
  479 O13     .XXY      0.00000
  480 O13     .XXZ      0.00130
  481 O13     .XZZ     -0.00177
  482 O13     .YZZ     -0.00000
  483 O13     .YYZ      0.00130
  484 O13     .XYZ     -0.00000
