 Entering Gaussian System

 Standard orientation:



 -------------------------------------------------------
     1  24    0     0.000000     0.000000     0.000000
     2   6    0     0.000000     0.000000     1.915427
     3   6    0     0.000000     1.915427     0.000000
     4   6    0     0.000000     0.000000    -1.915427
     5   6    0     0.000000    -1.915427     0.000000
     6   6    0     1.915427     0.000000     0.000000
     7   6    0    -1.915427     0.000000     0.000000
     8   8    0     0.000000     0.000000     3.065051
     9   8    0     0.000000     3.065051     0.000000
    10   8    0     0.000000     0.000000    -3.065051
    11   8    0     0.000000    -3.065051     0.000000
    12   8    0     3.065051     0.000000     0.000000
    13   8    0    -3.065051     0.000000     0.000000
 -------------------------------------------------------

 AO basis set (Overlap normalization):
 Atom Cr1     Shell     1 S    6
   5.1789810000e+04   1.7761819560e-03
   7.7768490000e+03   1.3604759660e-02
   1.7713850000e+03   6.7069248320e-02
   4.9915880000e+02   2.3231039420e-01
   1.5979820000e+02   4.8024098800e-01
   5.4470210000e+01   3.4876529130e-01
 Atom Cr1     Shell     2 SP   6
   1.0643280000e+03   2.3996690270e-03   3.9869969690e-03
   2.5321380000e+02   3.1948860350e-02   3.1046619760e-02
   8.1609240000e+01   1.2508680140e-01   1.3505179890e-01
   3.0481930000e+01  -3.2218660360e-02   3.4488649730e-01
   1.2294390000e+01  -6.1722840690e-01   4.6285709640e-01
   5.0377220000e+00  -4.5259360500e-01   2.1104259840e-01
 Atom Cr1     Shell     3 SP   6
   4.1562910000e+01  -3.4542159780e-03  -6.7224970170e-03
   1.3676270000e+01   7.2184279530e-02  -2.8064710070e-02
   5.8443900000e+00   2.5448199840e-01   5.8200280150e-02
   2.4716090000e+00  -2.9345339810e-01   3.9169880100e-01
   1.0283080000e+00  -7.3854549520e-01   5.0478230130e-01
   4.0725000000e-01  -1.9471569870e-01   1.7902900050e-01
 Atom Cr1     Shell     4 SP   3
   1.5714640000e+00   5.8922214600e-02  -1.9301000800e-01
   6.0558000000e-01   2.9760562420e-01   9.6056203980e-02
   9.8561000000e-02  -1.1475064790e+00   9.8176094070e-01
 Atom Cr1     Shell     5 SP   1
   3.6459000000e-02   1.0000000000e+00   1.0000000000e+00
 Atom Cr1     Shell     6 D    3
   1.8419300000e+01   8.6508163350e-02
   4.8126610000e+00   3.8266991480e-01
   1.4464470000e+00   7.0937722740e-01
 Atom Cr1     Shell     7 D    1
   4.0041300000e-01   1.0000000000e+00
 Atom Cr1     Shell     8 F    1
   8.0000000000e-01   1.0000000000e+00
 Atom  C2     Shell     9 S    6
   3.0475248800e+03   1.8347371320e-03
   4.5736951800e+02   1.4037322810e-02
   1.0394868500e+02   6.8842622260e-02
   2.9210155300e+01   2.3218444320e-01
   9.2866629600e+00   4.6794134840e-01
   3.1639269600e+00   3.6231198530e-01
 Atom  C2     Shell    10 SP   3
   7.8682723500e+00  -1.1933241980e-01   6.8999066590e-02
   1.8812885400e+00  -1.6085415170e-01   3.1642396100e-01
   5.4424925800e-01   1.1434564380e+00   7.4430829090e-01
 Atom  C2     Shell    11 SP   1
   1.6871447820e-01   1.0000000000e+00   1.0000000000e+00
 Atom  C2     Shell    12 D    1
   8.0000000000e-01   1.0000000000e+00
 Atom  C3     Shell    13 S    6
   3.0475248800e+03   1.8347371320e-03
   4.5736951800e+02   1.4037322810e-02
   1.0394868500e+02   6.8842622260e-02
   2.9210155300e+01   2.3218444320e-01
   9.2866629600e+00   4.6794134840e-01
   3.1639269600e+00   3.6231198530e-01
 Atom  C3     Shell    14 SP   3
   7.8682723500e+00  -1.1933241980e-01   6.8999066590e-02
   1.8812885400e+00  -1.6085415170e-01   3.1642396100e-01
   5.4424925800e-01   1.1434564380e+00   7.4430829090e-01
 Atom  C3     Shell    15 SP   1
   1.6871447820e-01   1.0000000000e+00   1.0000000000e+00
 Atom  C3     Shell    16 D    1
   8.0000000000e-01   1.0000000000e+00
 Atom  C4     Shell    17 S    6
   3.0475248800e+03   1.8347371320e-03
   4.5736951800e+02   1.4037322810e-02
   1.0394868500e+02   6.8842622260e-02
   2.9210155300e+01   2.3218444320e-01
   9.2866629600e+00   4.6794134840e-01
   3.1639269600e+00   3.6231198530e-01
 Atom  C4     Shell    18 SP   3
   7.8682723500e+00  -1.1933241980e-01   6.8999066590e-02
   1.8812885400e+00  -1.6085415170e-01   3.1642396100e-01
   5.4424925800e-01   1.1434564380e+00   7.4430829090e-01
 Atom  C4     Shell    19 SP   1
   1.6871447820e-01   1.0000000000e+00   1.0000000000e+00
 Atom  C4     Shell    20 D    1
   8.0000000000e-01   1.0000000000e+00
 Atom  C5     Shell    21 S    6
   3.0475248800e+03   1.8347371320e-03
   4.5736951800e+02   1.4037322810e-02
   1.0394868500e+02   6.8842622260e-02
   2.9210155300e+01   2.3218444320e-01
   9.2866629600e+00   4.6794134840e-01
   3.1639269600e+00   3.6231198530e-01
 Atom  C5     Shell    22 SP   3
   7.8682723500e+00  -1.1933241980e-01   6.8999066590e-02
   1.8812885400e+00  -1.6085415170e-01   3.1642396100e-01
   5.4424925800e-01   1.1434564380e+00   7.4430829090e-01
 Atom  C5     Shell    23 SP   1
   1.6871447820e-01   1.0000000000e+00   1.0000000000e+00
 Atom  C5     Shell    24 D    1
   8.0000000000e-01   1.0000000000e+00
 Atom  C6     Shell    25 S    6
   3.0475248800e+03   1.8347371320e-03
   4.5736951800e+02   1.4037322810e-02
   1.0394868500e+02   6.8842622260e-02
   2.9210155300e+01   2.3218444320e-01
   9.2866629600e+00   4.6794134840e-01
   3.1639269600e+00   3.6231198530e-01
 Atom  C6     Shell    26 SP   3
   7.8682723500e+00  -1.1933241980e-01   6.8999066590e-02
   1.8812885400e+00  -1.6085415170e-01   3.1642396100e-01
   5.4424925800e-01   1.1434564380e+00   7.4430829090e-01
 Atom  C6     Shell    27 SP   1
   1.6871447820e-01   1.0000000000e+00   1.0000000000e+00
 Atom  C6     Shell    28 D    1
   8.0000000000e-01   1.0000000000e+00
 Atom  C7     Shell    29 S    6
   3.0475248800e+03   1.8347371320e-03
   4.5736951800e+02   1.4037322810e-02
   1.0394868500e+02   6.8842622260e-02
   2.9210155300e+01   2.3218444320e-01
   9.2866629600e+00   4.6794134840e-01
   3.1639269600e+00   3.6231198530e-01
 Atom  C7     Shell    30 SP   3
   7.8682723500e+00  -1.1933241980e-01   6.8999066590e-02
   1.8812885400e+00  -1.6085415170e-01   3.1642396100e-01
   5.4424925800e-01   1.1434564380e+00   7.4430829090e-01
 Atom  C7     Shell    31 SP   1
   1.6871447820e-01   1.0000000000e+00   1.0000000000e+00
 Atom  C7     Shell    32 D    1
   8.0000000000e-01   1.0000000000e+00
 Atom  O8     Shell    33 S    6
   5.4846716600e+03   1.8310744300e-03
   8.2523494600e+02   1.3950172200e-02
   1.8804695800e+02   6.8445078100e-02
   5.2964500000e+01   2.3271433600e-01
   1.6897570400e+01   4.7019289800e-01
   5.7996353400e+00   3.5852085300e-01
 Atom  O8     Shell    34 SP   3
   1.5539616250e+01  -1.1077754950e-01   7.0874268230e-02
   3.5999335860e+00  -1.4802626270e-01   3.3975283910e-01
   1.0137617500e+00   1.1307670150e+00   7.2715857730e-01
 Atom  O8     Shell    35 SP   1
   2.7000582260e-01   1.0000000000e+00   1.0000000000e+00
 Atom  O8     Shell    36 D    1
   8.0000000000e-01   1.0000000000e+00
 Atom  O9     Shell    37 S    6
   5.4846716600e+03   1.8310744300e-03
   8.2523494600e+02   1.3950172200e-02
   1.8804695800e+02   6.8445078100e-02
   5.2964500000e+01   2.3271433600e-01
   1.6897570400e+01   4.7019289800e-01
   5.7996353400e+00   3.5852085300e-01
 Atom  O9     Shell    38 SP   3
   1.5539616250e+01  -1.1077754950e-01   7.0874268230e-02
   3.5999335860e+00  -1.4802626270e-01   3.3975283910e-01
   1.0137617500e+00   1.1307670150e+00   7.2715857730e-01
 Atom  O9     Shell    39 SP   1
   2.7000582260e-01   1.0000000000e+00   1.0000000000e+00
 Atom  O9     Shell    40 D    1
   8.0000000000e-01   1.0000000000e+00
 Atom  O10    Shell    41 S    6
   5.4846716600e+03   1.8310744300e-03
   8.2523494600e+02   1.3950172200e-02
   1.8804695800e+02   6.8445078100e-02
   5.2964500000e+01   2.3271433600e-01
   1.6897570400e+01   4.7019289800e-01
   5.7996353400e+00   3.5852085300e-01
 Atom  O10    Shell    42 SP   3
   1.5539616250e+01  -1.1077754950e-01   7.0874268230e-02
   3.5999335860e+00  -1.4802626270e-01   3.3975283910e-01
   1.0137617500e+00   1.1307670150e+00   7.2715857730e-01
 Atom  O10    Shell    43 SP   1
   2.7000582260e-01   1.0000000000e+00   1.0000000000e+00
 Atom  O10    Shell    44 D    1
   8.0000000000e-01   1.0000000000e+00
 Atom  O11    Shell    45 S    6
   5.4846716600e+03   1.8310744300e-03
   8.2523494600e+02   1.3950172200e-02
   1.8804695800e+02   6.8445078100e-02
   5.2964500000e+01   2.3271433600e-01
   1.6897570400e+01   4.7019289800e-01
   5.7996353400e+00   3.5852085300e-01
 Atom  O11    Shell    46 SP   3
   1.5539616250e+01  -1.1077754950e-01   7.0874268230e-02
   3.5999335860e+00  -1.4802626270e-01   3.3975283910e-01
   1.0137617500e+00   1.1307670150e+00   7.2715857730e-01
 Atom  O11    Shell    47 SP   1
   2.7000582260e-01   1.0000000000e+00   1.0000000000e+00
 Atom  O11    Shell    48 D    1
   8.0000000000e-01   1.0000000000e+00
 Atom  O12    Shell    49 S    6
   5.4846716600e+03   1.8310744300e-03
   8.2523494600e+02   1.3950172200e-02
   1.8804695800e+02   6.8445078100e-02
   5.2964500000e+01   2.3271433600e-01
   1.6897570400e+01   4.7019289800e-01
   5.7996353400e+00   3.5852085300e-01
 Atom  O12    Shell    50 SP   3
   1.5539616250e+01  -1.1077754950e-01   7.0874268230e-02
   3.5999335860e+00  -1.4802626270e-01   3.3975283910e-01
   1.0137617500e+00   1.1307670150e+00   7.2715857730e-01
 Atom  O12    Shell    51 SP   1
   2.7000582260e-01   1.0000000000e+00   1.0000000000e+00
 Atom  O12    Shell    52 D    1
   8.0000000000e-01   1.0000000000e+00
 Atom  O13    Shell    53 S    6
   5.4846716600e+03   1.8310744300e-03
   8.2523494600e+02   1.3950172200e-02
   1.8804695800e+02   6.8445078100e-02
   5.2964500000e+01   2.3271433600e-01
   1.6897570400e+01   4.7019289800e-01
   5.7996353400e+00   3.5852085300e-01
 Atom  O13    Shell    54 SP   3
   1.5539616250e+01  -1.1077754950e-01   7.0874268230e-02
   3.5999335860e+00  -1.4802626270e-01   3.3975283910e-01
   1.0137617500e+00   1.1307670150e+00   7.2715857730e-01
 Atom  O13    Shell    55 SP   1
   2.7000582260e-01   1.0000000000e+00   1.0000000000e+00
 Atom  O13    Shell    56 D    1
   8.0000000000e-01   1.0000000000e+00

 Molecular Orbital Coefficients:
                           1         2         3         4         5
                           O         O         O         O         O    
     Eigenvalues --  -5733.1116-776.16557-571.49010-571.49010-571.49010
    1 Cr1     .S        0.93164   0.47084   0.00000   0.00000  -0.00000
    2 Cr1     .S       -0.19369   1.09247  -0.00000  -0.00000   0.00000
    3 Cr1     .X       -0.00000   0.00000  -0.00000   0.00000   1.01642
    4 Cr1     .Y        0.00000   0.00000  -0.00000   1.01642  -0.00000
    5 Cr1     .Z       -0.00000   0.00000   1.01642   0.00000   0.00000
    6 Cr1     .S        0.09109  -0.18906  -0.00000  -0.00000   0.00000
    7 Cr1     .X        0.00000  -0.00000  -0.00000  -0.00000  -0.05616
    8 Cr1     .Y        0.00000  -0.00000  -0.00000  -0.05616   0.00000
    9 Cr1     .Z        0.00000  -0.00000  -0.05616   0.00000  -0.00000
   10 Cr1     .S        0.00926   0.02092  -0.00000  -0.00000   0.00000
   11 Cr1     .X        0.00000  -0.00000   0.00000   0.00000  -0.01894
   12 Cr1     .Y        0.00000  -0.00000   0.00000  -0.01894   0.00000
   13 Cr1     .Z       -0.00000   0.00000  -0.01894  -0.00000  -0.00000
   14 Cr1     .S        0.00164   0.00056  -0.00000  -0.00000   0.00000
   15 Cr1     .X       -0.00000   0.00000  -0.00000  -0.00000   0.00124
   16 Cr1     .Y       -0.00000   0.00000   0.00000   0.00124  -0.00000
   17 Cr1     .Z       -0.00000  -0.00000   0.00124   0.00000   0.00000
   18 Cr1     .XX       0.00747   0.01357   0.00000  -0.00000   0.00000
   19 Cr1     .YY       0.00747   0.01357  -0.00000   0.00000  -0.00000
   20 Cr1     .ZZ       0.00747   0.01357  -0.00000  -0.00000  -0.00000
   21 Cr1     .XY      -0.00000  -0.00000   0.00000  -0.00000  -0.00000
   22 Cr1     .XZ      -0.00000  -0.00000  -0.00000  -0.00000  -0.00000
   23 Cr1     .YZ       0.00000   0.00000  -0.00000  -0.00000  -0.00000
   24 Cr1     .XX       0.00087   0.00554  -0.00000  -0.00000  -0.00000
   25 Cr1     .YY       0.00087   0.00554  -0.00000  -0.00000   0.00000
   26 Cr1     .ZZ       0.00087   0.00554  -0.00000  -0.00000   0.00000
   27 Cr1     .XY       0.00000  -0.00000   0.00000  -0.00000   0.00000
   28 Cr1     .XZ       0.00000  -0.00000  -0.00000  -0.00000   0.00000
   29 Cr1     .YZ      -0.00000   0.00000   0.00000   0.00000  -0.00000
   30 Cr1     .XXX     -0.00000   0.00000   0.00000   0.00000  -0.00007
   31 Cr1     .YYY      0.00000  -0.00000  -0.00000   0.00027   0.00000
   32 Cr1     .ZZZ     -0.00000   0.00000  -0.00027  -0.00000  -0.00000
   33 Cr1     .XYY     -0.00000   0.00000   0.00000   0.00000  -0.00018
   34 Cr1     .XXY      0.00000  -0.00000  -0.00000   0.00027   0.00000
   35 Cr1     .XXZ     -0.00000   0.00000  -0.00018  -0.00000  -0.00000
   36 Cr1     .XZZ      0.00000  -0.00000  -0.00000   0.00000   0.00018
   37 Cr1     .YZZ      0.00000  -0.00000  -0.00000   0.00018  -0.00000
   38 Cr1     .YYZ     -0.00000   0.00000  -0.00018  -0.00000  -0.00000
   39 Cr1     .XYZ     -0.00000   0.00000  -0.00000  -0.00000  -0.00000
   40 C2      .S       -0.00017   0.00029  -0.00035   0.00000   0.00000
   41 C2      .S        0.00011  -0.00140  -0.00092  -0.00000   0.00000
   42 C2      .X        0.00000   0.00000   0.00000  -0.00000  -0.00012
   43 C2      .Y       -0.00000  -0.00000  -0.00000  -0.00012  -0.00000
   44 C2      .Z       -0.00026   0.00097   0.00025   0.00000  -0.00000
   45 C2      .S        0.00176   0.00358   0.01178  -0.00000   0.00000
   46 C2      .X        0.00000   0.00000  -0.00000  -0.00000   0.00275
   47 C2      .Y       -0.00000   0.00000   0.00000   0.00275   0.00000
   48 C2      .Z       -0.00192  -0.00043  -0.00333   0.00000  -0.00000
   49 C2      .XX      -0.00005  -0.00022  -0.00030   0.00000  -0.00000
   50 C2      .YY      -0.00005  -0.00022  -0.00030   0.00000   0.00000
   51 C2      .ZZ      -0.00008  -0.00014  -0.00044   0.00000   0.00000
   52 C2      .XY      -0.00000  -0.00000   0.00000   0.00000  -0.00000
   53 C2      .XZ      -0.00000   0.00000  -0.00000   0.00000  -0.00008
   54 C2      .YZ      -0.00000   0.00000   0.00000  -0.00008  -0.00000
   55 C3      .S       -0.00017   0.00029   0.00000  -0.00035   0.00000
   56 C3      .S        0.00011  -0.00140   0.00000  -0.00092   0.00000
   57 C3      .X        0.00000   0.00000   0.00000   0.00000  -0.00012
   58 C3      .Y       -0.00026   0.00097   0.00000   0.00025  -0.00000
   59 C3      .Z        0.00000  -0.00000  -0.00012  -0.00000   0.00000
   60 C3      .S        0.00176   0.00358  -0.00000   0.01178   0.00000
   61 C3      .X        0.00000   0.00000   0.00000  -0.00000   0.00275
   62 C3      .Y       -0.00192  -0.00043   0.00000  -0.00333   0.00000
   63 C3      .Z        0.00000  -0.00000   0.00275   0.00000   0.00000
   64 C3      .XX      -0.00005  -0.00022   0.00000  -0.00030   0.00000
   65 C3      .YY      -0.00008  -0.00014   0.00000  -0.00044   0.00000
   66 C3      .ZZ      -0.00005  -0.00022   0.00000  -0.00030   0.00000
   67 C3      .XY      -0.00000   0.00000   0.00000  -0.00000  -0.00008
   68 C3      .XZ      -0.00000  -0.00000   0.00000  -0.00000  -0.00000
   69 C3      .YZ      -0.00000   0.00000  -0.00008   0.00000  -0.00000
   70 C4      .S       -0.00017   0.00029   0.00035   0.00000   0.00000
   71 C4      .S        0.00011  -0.00140   0.00092  -0.00000   0.00000
   72 C4      .X        0.00000   0.00000  -0.00000  -0.00000  -0.00012
   73 C4      .Y       -0.00000  -0.00000   0.00000  -0.00012  -0.00000
   74 C4      .Z        0.00026  -0.00097   0.00025  -0.00000   0.00000
   75 C4      .S        0.00176   0.00358  -0.01178  -0.00000   0.00000
   76 C4      .X        0.00000   0.00000   0.00000  -0.00000   0.00275
   77 C4      .Y       -0.00000   0.00000  -0.00000   0.00275  -0.00000
   78 C4      .Z        0.00192   0.00043  -0.00333  -0.00000   0.00000
   79 C4      .XX      -0.00005  -0.00022   0.00030   0.00000  -0.00000
   80 C4      .YY      -0.00005  -0.00022   0.00030   0.00000   0.00000
   81 C4      .ZZ      -0.00008  -0.00014   0.00044   0.00000  -0.00000
   82 C4      .XY      -0.00000  -0.00000   0.00000   0.00000  -0.00000
   83 C4      .XZ       0.00000  -0.00000  -0.00000  -0.00000   0.00008
   84 C4      .YZ       0.00000  -0.00000   0.00000   0.00008  -0.00000
   85 C5      .S       -0.00017   0.00029   0.00000   0.00035   0.00000
   86 C5      .S        0.00011  -0.00140   0.00000   0.00092   0.00000
   87 C5      .X        0.00000   0.00000   0.00000  -0.00000  -0.00012
   88 C5      .Y        0.00026  -0.00097  -0.00000   0.00025   0.00000
   89 C5      .Z        0.00000  -0.00000  -0.00012   0.00000   0.00000
   90 C5      .S        0.00176   0.00358  -0.00000  -0.01178   0.00000
   91 C5      .X        0.00000   0.00000   0.00000   0.00000   0.00275
   92 C5      .Y        0.00192   0.00043  -0.00000  -0.00333  -0.00000
   93 C5      .Z        0.00000  -0.00000   0.00275  -0.00000   0.00000
   94 C5      .XX      -0.00005  -0.00022   0.00000   0.00030   0.00000
   95 C5      .YY      -0.00008  -0.00014   0.00000   0.00044   0.00000
   96 C5      .ZZ      -0.00005  -0.00022   0.00000   0.00030   0.00000
   97 C5      .XY       0.00000  -0.00000   0.00000  -0.00000   0.00008
   98 C5      .XZ      -0.00000  -0.00000   0.00000  -0.00000  -0.00000
   99 C5      .YZ       0.00000  -0.00000   0.00008   0.00000   0.00000
  100 C6      .S       -0.00017   0.00029   0.00000   0.00000  -0.00035
  101 C6      .S        0.00011  -0.00140  -0.00000   0.00000  -0.00092
  102 C6      .X       -0.00026   0.00097   0.00000   0.00000   0.00025
  103 C6      .Y       -0.00000  -0.00000   0.00000  -0.00012  -0.00000
  104 C6      .Z        0.00000  -0.00000  -0.00012  -0.00000  -0.00000
  105 C6      .S        0.00176   0.00358  -0.00000  -0.00000   0.01178
  106 C6      .X       -0.00192  -0.00043   0.00000   0.00000  -0.00333
  107 C6      .Y       -0.00000   0.00000  -0.00000   0.00275   0.00000
  108 C6      .Z        0.00000  -0.00000   0.00275  -0.00000   0.00000
  109 C6      .XX      -0.00008  -0.00014   0.00000   0.00000  -0.00044
  110 C6      .YY      -0.00005  -0.00022   0.00000   0.00000  -0.00030
  111 C6      .ZZ      -0.00005  -0.00022   0.00000   0.00000  -0.00030
  112 C6      .XY      -0.00000   0.00000   0.00000  -0.00008   0.00000
  113 C6      .XZ      -0.00000   0.00000  -0.00008  -0.00000   0.00000
  114 C6      .YZ       0.00000   0.00000  -0.00000  -0.00000  -0.00000
  115 C7      .S       -0.00017   0.00029   0.00000   0.00000   0.00035
  116 C7      .S        0.00011  -0.00140  -0.00000   0.00000   0.00092
  117 C7      .X        0.00026  -0.00097  -0.00000  -0.00000   0.00025
  118 C7      .Y       -0.00000  -0.00000   0.00000  -0.00012   0.00000
  119 C7      .Z        0.00000  -0.00000  -0.00012   0.00000   0.00000
  120 C7      .S        0.00176   0.00358  -0.00000  -0.00000  -0.01178
  121 C7      .X        0.00192   0.00043  -0.00000  -0.00000  -0.00333
  122 C7      .Y       -0.00000   0.00000  -0.00000   0.00275  -0.00000
  123 C7      .Z        0.00000  -0.00000   0.00275   0.00000  -0.00000
  124 C7      .XX      -0.00008  -0.00014   0.00000   0.00000   0.00044
  125 C7      .YY      -0.00005  -0.00022   0.00000   0.00000   0.00030
  126 C7      .ZZ      -0.00005  -0.00022   0.00000   0.00000   0.00030
  127 C7      .XY       0.00000  -0.00000  -0.00000   0.00008   0.00000
  128 C7      .XZ       0.00000  -0.00000   0.00008  -0.00000   0.00000
  129 C7      .YZ       0.00000   0.00000  -0.00000  -0.00000  -0.00000
  130 O8      .S       -0.00002  -0.00000   0.00007  -0.00000   0.00000
  131 O8      .S       -0.00021   0.00042   0.00026  -0.00000   0.00000
  132 O8      .X       -0.00000   0.00000   0.00000   0.00000   0.00014
  133 O8      .Y        0.00000   0.00000  -0.00000   0.00014  -0.00000
  134 O8      .Z        0.00005  -0.00017   0.00001   0.00000  -0.00000
  135 O8      .S        0.00118  -0.00128  -0.00144   0.00000  -0.00000
  136 O8      .X        0.00000  -0.00000   0.00000   0.00000  -0.00083
  137 O8      .Y        0.00000  -0.00000  -0.00000  -0.00083  -0.00000
  138 O8      .Z       -0.00026   0.00044   0.00076  -0.00000   0.00000
  139 O8      .XX      -0.00009   0.00015   0.00019  -0.00000   0.00000
  140 O8      .YY      -0.00009   0.00015   0.00019  -0.00000   0.00000
  141 O8      .ZZ      -0.00006   0.00011   0.00014  -0.00000   0.00000
  142 O8      .XY      -0.00000  -0.00000   0.00000  -0.00000   0.00000
  143 O8      .XZ       0.00000   0.00000  -0.00000  -0.00000   0.00014
  144 O8      .YZ      -0.00000   0.00000   0.00000   0.00014   0.00000
  145 O9      .S       -0.00002  -0.00000  -0.00000   0.00007   0.00000
  146 O9      .S       -0.00021   0.00042  -0.00000   0.00026   0.00000
  147 O9      .X       -0.00000   0.00000   0.00000   0.00000   0.00014
  148 O9      .Y        0.00005  -0.00017   0.00000   0.00001  -0.00000
  149 O9      .Z       -0.00000   0.00000   0.00014  -0.00000  -0.00000
  150 O9      .S        0.00118  -0.00128   0.00000  -0.00144  -0.00000
  151 O9      .X        0.00000  -0.00000   0.00000   0.00000  -0.00083
  152 O9      .Y       -0.00026   0.00044  -0.00000   0.00076   0.00000
  153 O9      .Z       -0.00000   0.00000  -0.00083  -0.00000  -0.00000
  154 O9      .XX      -0.00009   0.00015  -0.00000   0.00019   0.00000
  155 O9      .YY      -0.00006   0.00011  -0.00000   0.00014   0.00000
  156 O9      .ZZ      -0.00009   0.00015  -0.00000   0.00019   0.00000
  157 O9      .XY      -0.00000   0.00000  -0.00000  -0.00000   0.00014
  158 O9      .XZ      -0.00000  -0.00000  -0.00000  -0.00000   0.00000
  159 O9      .YZ      -0.00000   0.00000   0.00014   0.00000   0.00000
  160 O10     .S       -0.00002  -0.00000  -0.00007  -0.00000   0.00000
  161 O10     .S       -0.00021   0.00042  -0.00026  -0.00000   0.00000
  162 O10     .X       -0.00000   0.00000  -0.00000   0.00000   0.00014
  163 O10     .Y        0.00000   0.00000   0.00000   0.00014   0.00000
  164 O10     .Z       -0.00005   0.00017   0.00001  -0.00000   0.00000
  165 O10     .S        0.00118  -0.00128   0.00144   0.00000  -0.00000
  166 O10     .X        0.00000  -0.00000  -0.00000   0.00000  -0.00083
  167 O10     .Y        0.00000  -0.00000   0.00000  -0.00083   0.00000
  168 O10     .Z        0.00026  -0.00044   0.00076   0.00000  -0.00000
  169 O10     .XX      -0.00009   0.00015  -0.00019  -0.00000   0.00000
  170 O10     .YY      -0.00009   0.00015  -0.00019  -0.00000   0.00000
  171 O10     .ZZ      -0.00006   0.00011  -0.00014  -0.00000   0.00000
  172 O10     .XY      -0.00000  -0.00000   0.00000  -0.00000   0.00000
  173 O10     .XZ      -0.00000  -0.00000  -0.00000   0.00000  -0.00014
  174 O10     .YZ       0.00000  -0.00000   0.00000  -0.00014   0.00000
  175 O11     .S       -0.00002  -0.00000  -0.00000  -0.00007   0.00000
  176 O11     .S       -0.00021   0.00042  -0.00000  -0.00026   0.00000
  177 O11     .X       -0.00000   0.00000  -0.00000   0.00000   0.00014
  178 O11     .Y       -0.00005   0.00017  -0.00000   0.00001  -0.00000
  179 O11     .Z       -0.00000   0.00000   0.00014   0.00000  -0.00000
  180 O11     .S        0.00118  -0.00128   0.00000   0.00144  -0.00000
  181 O11     .X        0.00000  -0.00000  -0.00000  -0.00000  -0.00083
  182 O11     .Y        0.00026  -0.00044   0.00000   0.00076  -0.00000
  183 O11     .Z       -0.00000   0.00000  -0.00083   0.00000  -0.00000
  184 O11     .XX      -0.00009   0.00015  -0.00000  -0.00019   0.00000
  185 O11     .YY      -0.00006   0.00011  -0.00000  -0.00014   0.00000
  186 O11     .ZZ      -0.00009   0.00015  -0.00000  -0.00019   0.00000
  187 O11     .XY       0.00000  -0.00000  -0.00000  -0.00000  -0.00014
  188 O11     .XZ      -0.00000  -0.00000  -0.00000  -0.00000   0.00000
  189 O11     .YZ       0.00000  -0.00000  -0.00014   0.00000   0.00000
  190 O12     .S       -0.00002  -0.00000  -0.00000  -0.00000   0.00007
  191 O12     .S       -0.00021   0.00042  -0.00000  -0.00000   0.00026
  192 O12     .X        0.00005  -0.00017  -0.00000   0.00000   0.00001
  193 O12     .Y        0.00000   0.00000   0.00000   0.00014  -0.00000
  194 O12     .Z       -0.00000   0.00000   0.00014  -0.00000  -0.00000
  195 O12     .S        0.00118  -0.00128   0.00000   0.00000  -0.00144
  196 O12     .X       -0.00026   0.00044  -0.00000  -0.00000   0.00076
  197 O12     .Y        0.00000  -0.00000   0.00000  -0.00083  -0.00000
  198 O12     .Z       -0.00000   0.00000  -0.00083  -0.00000  -0.00000
  199 O12     .XX      -0.00006   0.00011  -0.00000  -0.00000   0.00014
  200 O12     .YY      -0.00009   0.00015  -0.00000  -0.00000   0.00019
  201 O12     .ZZ      -0.00009   0.00015  -0.00000  -0.00000   0.00019
  202 O12     .XY      -0.00000   0.00000  -0.00000   0.00014   0.00000
  203 O12     .XZ      -0.00000   0.00000   0.00014   0.00000   0.00000
  204 O12     .YZ       0.00000   0.00000   0.00000   0.00000  -0.00000
  205 O13     .S       -0.00002  -0.00000  -0.00000  -0.00000  -0.00007
  206 O13     .S       -0.00021   0.00042  -0.00000  -0.00000  -0.00026
  207 O13     .X       -0.00005   0.00017   0.00000  -0.00000   0.00001
  208 O13     .Y        0.00000   0.00000   0.00000   0.00014   0.00000
  209 O13     .Z       -0.00000   0.00000   0.00014   0.00000   0.00000
  210 O13     .S        0.00118  -0.00128   0.00000   0.00000   0.00144
  211 O13     .X        0.00026  -0.00044   0.00000   0.00000   0.00076
  212 O13     .Y        0.00000  -0.00000   0.00000  -0.00083   0.00000
  213 O13     .Z       -0.00000   0.00000  -0.00083   0.00000   0.00000
  214 O13     .XX      -0.00006   0.00011  -0.00000  -0.00000  -0.00014
  215 O13     .YY      -0.00009   0.00015  -0.00000  -0.00000  -0.00019
  216 O13     .ZZ      -0.00009   0.00015  -0.00000  -0.00000  -0.00019
  217 O13     .XY       0.00000  -0.00000   0.00000  -0.00014   0.00000
  218 O13     .XZ       0.00000  -0.00000  -0.00014   0.00000   0.00000
  219 O13     .YZ       0.00000   0.00000   0.00000   0.00000  -0.00000
                           6         7         8         9        10
                           O         O         O         O         O    
     Eigenvalues --  -516.25669-516.25669-516.25669-516.25669-516.25669
    1 Cr1     .S       -0.00001  -0.00001  -0.00001  -0.00001  -0.00001
    2 Cr1     .S       -0.00023  -0.00023  -0.00023  -0.00023  -0.00023
    3 Cr1     .X        0.00018  -0.00018   0.00000   0.00000   0.00000
    4 Cr1     .Y        0.00000   0.00000   0.00000   0.00018  -0.00018
    5 Cr1     .Z        0.00000   0.00000   0.00018   0.00000   0.00000
    6 Cr1     .S       -0.00045  -0.00045  -0.00045  -0.00045  -0.00045
    7 Cr1     .X       -0.00000   0.00000   0.00000   0.00000   0.00000
    8 Cr1     .Y       -0.00000  -0.00000  -0.00000  -0.00000   0.00000
    9 Cr1     .Z       -0.00000  -0.00000  -0.00000  -0.00000  -0.00000
   10 Cr1     .S       -0.00164  -0.00164  -0.00164  -0.00164  -0.00164
   11 Cr1     .X        0.00336  -0.00336   0.00000   0.00000   0.00000
   12 Cr1     .Y        0.00000   0.00000   0.00000   0.00336  -0.00336
   13 Cr1     .Z       -0.00000  -0.00000   0.00336  -0.00000  -0.00000
   14 Cr1     .S       -0.00295  -0.00295  -0.00295  -0.00295  -0.00295
   15 Cr1     .X       -0.00272   0.00272   0.00000   0.00000   0.00000
   16 Cr1     .Y        0.00000   0.00000   0.00000  -0.00272   0.00272
   17 Cr1     .Z        0.00000   0.00000  -0.00272   0.00000   0.00000
   18 Cr1     .XX       0.00029   0.00029  -0.00022  -0.00022  -0.00022
   19 Cr1     .YY      -0.00022  -0.00022  -0.00022   0.00029   0.00029
   20 Cr1     .ZZ      -0.00022  -0.00022   0.00029  -0.00022  -0.00022
   21 Cr1     .XY       0.00000  -0.00000  -0.00000  -0.00000   0.00000
   22 Cr1     .XZ       0.00000  -0.00000  -0.00000  -0.00000  -0.00000
   23 Cr1     .YZ      -0.00000  -0.00000   0.00000   0.00000  -0.00000
   24 Cr1     .XX       0.00098   0.00098   0.00019   0.00019   0.00019
   25 Cr1     .YY       0.00019   0.00019   0.00019   0.00098   0.00098
   26 Cr1     .ZZ       0.00019   0.00019   0.00098   0.00019   0.00019
   27 Cr1     .XY       0.00000  -0.00000   0.00000   0.00000   0.00000
   28 Cr1     .XZ       0.00000  -0.00000   0.00000  -0.00000  -0.00000
   29 Cr1     .YZ       0.00000  -0.00000   0.00000   0.00000  -0.00000
   30 Cr1     .XXX      0.00003  -0.00003  -0.00000  -0.00000  -0.00000
   31 Cr1     .YYY     -0.00000  -0.00000  -0.00000  -0.00012   0.00012
   32 Cr1     .ZZZ      0.00000   0.00000   0.00012   0.00000   0.00000
   33 Cr1     .XYY      0.00008  -0.00008  -0.00000  -0.00000  -0.00000
   34 Cr1     .XXY     -0.00000  -0.00000  -0.00000  -0.00012   0.00012
   35 Cr1     .XXZ      0.00000   0.00000   0.00008   0.00000   0.00000
   36 Cr1     .XZZ     -0.00008   0.00008   0.00000   0.00000   0.00000
   37 Cr1     .YZZ     -0.00000  -0.00000  -0.00000  -0.00008   0.00008
   38 Cr1     .YYZ      0.00000   0.00000   0.00008   0.00000   0.00000
   39 Cr1     .XYZ      0.00000  -0.00000   0.00000  -0.00000   0.00000
   40 C2      .S       -0.00004  -0.00004   0.00329  -0.00004  -0.00004
   41 C2      .S       -0.00010  -0.00010  -0.01063  -0.00010  -0.00010
   42 C2      .X        0.00002  -0.00002  -0.00000  -0.00000  -0.00000
   43 C2      .Y       -0.00000  -0.00000  -0.00000   0.00002  -0.00002
   44 C2      .Z        0.00002   0.00002  -0.01830   0.00002   0.00002
   45 C2      .S        0.00165   0.00165   0.00160   0.00165   0.00165
   46 C2      .X        0.00035  -0.00035  -0.00000  -0.00000  -0.00000
   47 C2      .Y       -0.00000  -0.00000  -0.00000   0.00035  -0.00035
   48 C2      .Z        0.00074   0.00074   0.00303   0.00074   0.00074
   49 C2      .XX      -0.00003  -0.00003   0.00191  -0.00007  -0.00007
   50 C2      .YY      -0.00007  -0.00007   0.00191  -0.00003  -0.00003
   51 C2      .ZZ       0.00002   0.00002  -0.00443   0.00002   0.00002
   52 C2      .XY      -0.00000   0.00000  -0.00000  -0.00000   0.00000
   53 C2      .XZ      -0.00003   0.00003  -0.00000  -0.00000  -0.00000
   54 C2      .YZ       0.00000   0.00000   0.00000  -0.00003   0.00003
   55 C3      .S       -0.00004  -0.00004  -0.00004   0.00329   0.00005
   56 C3      .S       -0.00010  -0.00010  -0.00010  -0.01063  -0.00040
   57 C3      .X        0.00002  -0.00002  -0.00000  -0.00000  -0.00000
   58 C3      .Y        0.00002   0.00002   0.00002  -0.01830   0.00031
   59 C3      .Z       -0.00000  -0.00000   0.00002  -0.00000  -0.00000
   60 C3      .S        0.00165   0.00165   0.00165   0.00160   0.00064
   61 C3      .X        0.00035  -0.00035  -0.00000  -0.00000  -0.00000
   62 C3      .Y        0.00074   0.00074   0.00074   0.00303  -0.00089
   63 C3      .Z        0.00000   0.00000   0.00035   0.00000   0.00000
   64 C3      .XX      -0.00003  -0.00003  -0.00007   0.00191  -0.00003
   65 C3      .YY       0.00002   0.00002   0.00002  -0.00443  -0.00016
   66 C3      .ZZ      -0.00007  -0.00007  -0.00003   0.00191  -0.00003
   67 C3      .XY      -0.00003   0.00003  -0.00000  -0.00000  -0.00000
   68 C3      .XZ      -0.00000   0.00000  -0.00000  -0.00000  -0.00000
   69 C3      .YZ       0.00000   0.00000  -0.00003   0.00000   0.00000
   70 C4      .S       -0.00004  -0.00004   0.00005  -0.00004  -0.00004
   71 C4      .S       -0.00010  -0.00010  -0.00040  -0.00010  -0.00010
   72 C4      .X        0.00002  -0.00002  -0.00000  -0.00000  -0.00000
   73 C4      .Y       -0.00000  -0.00000  -0.00000   0.00002  -0.00002
   74 C4      .Z       -0.00002  -0.00002  -0.00031  -0.00002  -0.00002
   75 C4      .S        0.00165   0.00165   0.00064   0.00165   0.00165
   76 C4      .X        0.00035  -0.00035   0.00000  -0.00000  -0.00000
   77 C4      .Y       -0.00000  -0.00000  -0.00000   0.00035  -0.00035
   78 C4      .Z       -0.00074  -0.00074   0.00089  -0.00074  -0.00074
   79 C4      .XX      -0.00003  -0.00003  -0.00003  -0.00007  -0.00007
   80 C4      .YY      -0.00007  -0.00007  -0.00003  -0.00003  -0.00003
   81 C4      .ZZ       0.00002   0.00002  -0.00016   0.00002   0.00002
   82 C4      .XY      -0.00000   0.00000  -0.00000  -0.00000   0.00000
   83 C4      .XZ       0.00003  -0.00003   0.00000   0.00000   0.00000
   84 C4      .YZ      -0.00000  -0.00000  -0.00000   0.00003  -0.00003
   85 C5      .S       -0.00004  -0.00004  -0.00004   0.00005   0.00329
   86 C5      .S       -0.00010  -0.00010  -0.00010  -0.00040  -0.01063
   87 C5      .X        0.00002  -0.00002  -0.00000  -0.00000  -0.00000
   88 C5      .Y       -0.00002  -0.00002  -0.00002  -0.00031   0.01830
   89 C5      .Z       -0.00000  -0.00000   0.00002  -0.00000  -0.00000
   90 C5      .S        0.00165   0.00165   0.00165   0.00064   0.00160
   91 C5      .X        0.00035  -0.00035   0.00000  -0.00000  -0.00000
   92 C5      .Y       -0.00074  -0.00074  -0.00074   0.00089  -0.00303
   93 C5      .Z        0.00000   0.00000   0.00035   0.00000   0.00000
   94 C5      .XX      -0.00003  -0.00003  -0.00007  -0.00003   0.00191
   95 C5      .YY       0.00002   0.00002   0.00002  -0.00016  -0.00443
   96 C5      .ZZ      -0.00007  -0.00007  -0.00003  -0.00003   0.00191
   97 C5      .XY       0.00003  -0.00003   0.00000   0.00000   0.00000
   98 C5      .XZ      -0.00000   0.00000  -0.00000  -0.00000  -0.00000
   99 C5      .YZ      -0.00000  -0.00000   0.00003  -0.00000  -0.00000
  100 C6      .S        0.00329   0.00005  -0.00004  -0.00004  -0.00004
  101 C6      .S       -0.01063  -0.00040  -0.00010  -0.00010  -0.00010
  102 C6      .X       -0.01830   0.00031   0.00002   0.00002   0.00002
  103 C6      .Y       -0.00000  -0.00000  -0.00000   0.00002  -0.00002
  104 C6      .Z       -0.00000  -0.00000   0.00002  -0.00000  -0.00000
  105 C6      .S        0.00160   0.00064   0.00165   0.00165   0.00165
  106 C6      .X        0.00303  -0.00089   0.00074   0.00074   0.00074
  107 C6      .Y        0.00000  -0.00000  -0.00000   0.00035  -0.00035
  108 C6      .Z        0.00000  -0.00000   0.00035   0.00000   0.00000
  109 C6      .XX      -0.00443  -0.00016   0.00002   0.00002   0.00002
  110 C6      .YY       0.00191  -0.00003  -0.00007  -0.00003  -0.00003
  111 C6      .ZZ       0.00191  -0.00003  -0.00003  -0.00007  -0.00007
  112 C6      .XY       0.00000  -0.00000   0.00000  -0.00003   0.00003
  113 C6      .XZ       0.00000  -0.00000  -0.00003   0.00000   0.00000
  114 C6      .YZ      -0.00000  -0.00000  -0.00000  -0.00000   0.00000
  115 C7      .S        0.00005   0.00329  -0.00004  -0.00004  -0.00004
  116 C7      .S       -0.00040  -0.01063  -0.00010  -0.00010  -0.00010
  117 C7      .X       -0.00031   0.01830  -0.00002  -0.00002  -0.00002
  118 C7      .Y       -0.00000  -0.00000  -0.00000   0.00002  -0.00002
  119 C7      .Z       -0.00000  -0.00000   0.00002  -0.00000  -0.00000
  120 C7      .S        0.00064   0.00160   0.00165   0.00165   0.00165
  121 C7      .X        0.00089  -0.00303  -0.00074  -0.00074  -0.00074
  122 C7      .Y       -0.00000   0.00000  -0.00000   0.00035  -0.00035
  123 C7      .Z       -0.00000   0.00000   0.00035   0.00000   0.00000
  124 C7      .XX      -0.00016  -0.00443   0.00002   0.00002   0.00002
  125 C7      .YY      -0.00003   0.00191  -0.00007  -0.00003  -0.00003
  126 C7      .ZZ      -0.00003   0.00191  -0.00003  -0.00007  -0.00007
  127 C7      .XY       0.00000  -0.00000  -0.00000   0.00003  -0.00003
  128 C7      .XZ       0.00000  -0.00000   0.00003  -0.00000  -0.00000
  129 C7      .YZ      -0.00000  -0.00000  -0.00000  -0.00000   0.00000
  130 O8      .S        0.00003   0.00003   1.01378   0.00003   0.00003
  131 O8      .S        0.00019   0.00019  -0.03725   0.00019   0.00019
  132 O8      .X       -0.00005   0.00005   0.00000   0.00000   0.00000
  133 O8      .Y        0.00000   0.00000   0.00000  -0.00005   0.00005
  134 O8      .Z        0.00000   0.00000  -0.00594   0.00000   0.00000
  135 O8      .S       -0.00127  -0.00127  -0.05347  -0.00127  -0.00127
  136 O8      .X       -0.00006   0.00006  -0.00000  -0.00000  -0.00000
  137 O8      .Y       -0.00000  -0.00000  -0.00000  -0.00006   0.00006
  138 O8      .Z        0.00053   0.00053  -0.00737   0.00053   0.00053
  139 O8      .XX       0.00010   0.00010  -0.00732   0.00010   0.00010
  140 O8      .YY       0.00010   0.00010  -0.00732   0.00010   0.00010
  141 O8      .ZZ       0.00004   0.00004  -0.00676   0.00004   0.00004
  142 O8      .XY       0.00000  -0.00000  -0.00000   0.00000  -0.00000
  143 O8      .XZ       0.00001  -0.00001   0.00000   0.00000   0.00000
  144 O8      .YZ       0.00000   0.00000   0.00000   0.00001  -0.00001
  145 O9      .S        0.00003   0.00003   0.00003   1.01378  -0.00000
  146 O9      .S        0.00019   0.00019   0.00019  -0.03725   0.00004
  147 O9      .X       -0.00005   0.00005   0.00000   0.00000   0.00000
  148 O9      .Y        0.00000   0.00000   0.00000  -0.00594  -0.00014
  149 O9      .Z        0.00000   0.00000  -0.00005   0.00000   0.00000
  150 O9      .S       -0.00127  -0.00127  -0.00127  -0.05347   0.00025
  151 O9      .X       -0.00006   0.00006  -0.00000  -0.00000  -0.00000
  152 O9      .Y        0.00053   0.00053   0.00053  -0.00737  -0.00031
  153 O9      .Z       -0.00000  -0.00000  -0.00006  -0.00000  -0.00000
  154 O9      .XX       0.00010   0.00010   0.00010  -0.00732   0.00000
  155 O9      .YY       0.00004   0.00004   0.00004  -0.00676   0.00008
  156 O9      .ZZ       0.00010   0.00010   0.00010  -0.00732   0.00000
  157 O9      .XY       0.00001  -0.00001   0.00000   0.00000   0.00000
  158 O9      .XZ       0.00000  -0.00000   0.00000  -0.00000  -0.00000
  159 O9      .YZ       0.00000   0.00000   0.00001   0.00000   0.00000
  160 O10     .S        0.00003   0.00003  -0.00000   0.00003   0.00003
  161 O10     .S        0.00019   0.00019   0.00004   0.00019   0.00019
  162 O10     .X       -0.00005   0.00005   0.00000   0.00000   0.00000
  163 O10     .Y        0.00000   0.00000   0.00000  -0.00005   0.00005
  164 O10     .Z       -0.00000  -0.00000   0.00014  -0.00000  -0.00000
  165 O10     .S       -0.00127  -0.00127   0.00025  -0.00127  -0.00127
  166 O10     .X       -0.00006   0.00006  -0.00000  -0.00000  -0.00000
  167 O10     .Y       -0.00000  -0.00000  -0.00000  -0.00006   0.00006
  168 O10     .Z       -0.00053  -0.00053   0.00031  -0.00053  -0.00053
  169 O10     .XX       0.00010   0.00010   0.00000   0.00010   0.00010
  170 O10     .YY       0.00010   0.00010   0.00000   0.00010   0.00010
  171 O10     .ZZ       0.00004   0.00004   0.00008   0.00004   0.00004
  172 O10     .XY       0.00000  -0.00000   0.00000  -0.00000  -0.00000
  173 O10     .XZ      -0.00001   0.00001  -0.00000  -0.00000  -0.00000
  174 O10     .YZ      -0.00000  -0.00000  -0.00000  -0.00001   0.00001
  175 O11     .S        0.00003   0.00003   0.00003  -0.00000   1.01378
  176 O11     .S        0.00019   0.00019   0.00019   0.00004  -0.03725
  177 O11     .X       -0.00005   0.00005   0.00000   0.00000   0.00000
  178 O11     .Y       -0.00000  -0.00000  -0.00000   0.00014   0.00594
  179 O11     .Z        0.00000   0.00000  -0.00005   0.00000   0.00000
  180 O11     .S       -0.00127  -0.00127  -0.00127   0.00025  -0.05347
  181 O11     .X       -0.00006   0.00006  -0.00000  -0.00000  -0.00000
  182 O11     .Y       -0.00053  -0.00053  -0.00053   0.00031   0.00737
  183 O11     .Z       -0.00000  -0.00000  -0.00006  -0.00000  -0.00000
  184 O11     .XX       0.00010   0.00010   0.00010   0.00000  -0.00732
  185 O11     .YY       0.00004   0.00004   0.00004   0.00008  -0.00676
  186 O11     .ZZ       0.00010   0.00010   0.00010   0.00000  -0.00732
  187 O11     .XY      -0.00001   0.00001  -0.00000  -0.00000  -0.00000
  188 O11     .XZ       0.00000  -0.00000   0.00000  -0.00000  -0.00000
  189 O11     .YZ      -0.00000  -0.00000  -0.00001  -0.00000  -0.00000
  190 O12     .S        1.01378  -0.00000   0.00003   0.00003   0.00003
  191 O12     .S       -0.03725   0.00004   0.00019   0.00019   0.00019
  192 O12     .X       -0.00594  -0.00014   0.00000   0.00000   0.00000
  193 O12     .Y       -0.00000   0.00000   0.00000  -0.00005   0.00005
  194 O12     .Z       -0.00000   0.00000  -0.00005   0.00000   0.00000
  195 O12     .S       -0.05347   0.00025  -0.00127  -0.00127  -0.00127
  196 O12     .X       -0.00737  -0.00031   0.00053   0.00053   0.00053
  197 O12     .Y       -0.00000   0.00000  -0.00000  -0.00006   0.00006
  198 O12     .Z       -0.00000  -0.00000  -0.00006  -0.00000  -0.00000
  199 O12     .XX      -0.00676   0.00008   0.00004   0.00004   0.00004
  200 O12     .YY      -0.00732   0.00000   0.00010   0.00010   0.00010
  201 O12     .ZZ      -0.00732   0.00000   0.00010   0.00010   0.00010
  202 O12     .XY       0.00000   0.00000   0.00000   0.00001  -0.00001
  203 O12     .XZ       0.00000  -0.00000   0.00001   0.00000   0.00000
  204 O12     .YZ       0.00000  -0.00000   0.00000   0.00000  -0.00000
  205 O13     .S       -0.00000   1.01378   0.00003   0.00003   0.00003
  206 O13     .S        0.00004  -0.03725   0.00019   0.00019   0.00019
  207 O13     .X        0.00014   0.00594  -0.00000  -0.00000  -0.00000
  208 O13     .Y        0.00000  -0.00000   0.00000  -0.00005   0.00005
  209 O13     .Z        0.00000  -0.00000  -0.00005   0.00000   0.00000
  210 O13     .S        0.00025  -0.05347  -0.00127  -0.00127  -0.00127
  211 O13     .X        0.00031   0.00737  -0.00053  -0.00053  -0.00053
  212 O13     .Y        0.00000  -0.00000  -0.00000  -0.00006   0.00006
  213 O13     .Z       -0.00000  -0.00000  -0.00006  -0.00000  -0.00000
  214 O13     .XX       0.00008  -0.00676   0.00004   0.00004   0.00004
  215 O13     .YY       0.00000  -0.00732   0.00010   0.00010   0.00010
  216 O13     .ZZ       0.00000  -0.00732   0.00010   0.00010   0.00010
  217 O13     .XY      -0.00000  -0.00000  -0.00000  -0.00001   0.00001
  218 O13     .XZ       0.00000  -0.00000  -0.00001  -0.00000  -0.00000
  219 O13     .YZ      -0.00000  -0.00000   0.00000   0.00000  -0.00000
                          11        12        13        14        15
                           O         O         O         O         O    
     Eigenvalues --  -516.25669-277.53621-277.53621-277.53621-277.53621
    1 Cr1     .S       -0.00001   0.00061   0.00061   0.00061   0.00061
    2 Cr1     .S       -0.00023   0.00111   0.00111   0.00111   0.00111
    3 Cr1     .X        0.00000   0.00000  -0.00000   0.00000   0.00000
    4 Cr1     .Y        0.00000  -0.00197  -0.00000   0.00197  -0.00000
    5 Cr1     .Z       -0.00018  -0.00000   0.00197  -0.00000  -0.00197
    6 Cr1     .S       -0.00045  -0.00648  -0.00648  -0.00648  -0.00648
    7 Cr1     .X        0.00000  -0.00000  -0.00000  -0.00000  -0.00000
    8 Cr1     .Y       -0.00000   0.00765  -0.00000  -0.00765  -0.00000
    9 Cr1     .Z        0.00000  -0.00000  -0.00765  -0.00000   0.00765
   10 Cr1     .S       -0.00164  -0.01829  -0.01829  -0.01829  -0.01829
   11 Cr1     .X        0.00000  -0.00000  -0.00000  -0.00000  -0.00000
   12 Cr1     .Y        0.00000   0.00226  -0.00000  -0.00226  -0.00000
   13 Cr1     .Z       -0.00336  -0.00000  -0.00226  -0.00000   0.00226
   14 Cr1     .S       -0.00295  -0.00145  -0.00145  -0.00145  -0.00145
   15 Cr1     .X        0.00000   0.00000   0.00000   0.00000   0.00000
   16 Cr1     .Y        0.00000  -0.00118   0.00000   0.00118   0.00000
   17 Cr1     .Z        0.00272   0.00000   0.00118   0.00000  -0.00118
   18 Cr1     .XX      -0.00022   0.00615   0.00615   0.00615   0.00615
   19 Cr1     .YY      -0.00022  -0.00725   0.00615  -0.00725   0.00615
   20 Cr1     .ZZ       0.00029   0.00615  -0.00725   0.00615  -0.00725
   21 Cr1     .XY       0.00000   0.00000   0.00000  -0.00000  -0.00000
   22 Cr1     .XZ      -0.00000  -0.00000  -0.00000   0.00000   0.00000
   23 Cr1     .YZ      -0.00000  -0.00000   0.00000   0.00000  -0.00000
   24 Cr1     .XX       0.00019   0.00188   0.00188   0.00188   0.00188
   25 Cr1     .YY       0.00019  -0.00781   0.00188  -0.00781   0.00188
   26 Cr1     .ZZ       0.00098   0.00188  -0.00781   0.00188  -0.00781
   27 Cr1     .XY       0.00000   0.00000   0.00000  -0.00000  -0.00000
   28 Cr1     .XZ       0.00000  -0.00000  -0.00000   0.00000   0.00000
   29 Cr1     .YZ      -0.00000  -0.00000   0.00000   0.00000  -0.00000
   30 Cr1     .XXX     -0.00000   0.00000  -0.00000   0.00000  -0.00000
   31 Cr1     .YYY     -0.00000   0.00087   0.00000  -0.00087   0.00000
   32 Cr1     .ZZZ     -0.00012  -0.00000   0.00087  -0.00000  -0.00087
   33 Cr1     .XYY     -0.00000   0.00000  -0.00000   0.00000  -0.00000
   34 Cr1     .XXY     -0.00000   0.00088   0.00000  -0.00088   0.00000
   35 Cr1     .XXZ     -0.00008  -0.00000   0.00058  -0.00000  -0.00058
   36 Cr1     .XZZ      0.00000  -0.00000   0.00000  -0.00000   0.00000
   37 Cr1     .YZZ     -0.00000   0.00058   0.00000  -0.00058   0.00000
   38 Cr1     .YYZ     -0.00008  -0.00000   0.00058  -0.00000  -0.00058
   39 Cr1     .XYZ      0.00000  -0.00000  -0.00000   0.00000   0.00000
   40 C2      .S        0.00005   0.00004  -0.00066   0.00004   1.01154
   41 C2      .S       -0.00040  -0.00002   0.00157  -0.00002  -0.00015
   42 C2      .X       -0.00000   0.00000  -0.00000   0.00000   0.00000
   43 C2      .Y       -0.00000  -0.00138   0.00000   0.00138   0.00000
   44 C2      .Z        0.00031   0.00056  -0.00180   0.00056   0.00225
   45 C2      .S        0.00064  -0.00381   0.00160  -0.00381  -0.05077
   46 C2      .X       -0.00000   0.00000  -0.00000   0.00000   0.00000
   47 C2      .Y       -0.00000  -0.00016   0.00000   0.00016   0.00000
   48 C2      .Z       -0.00089   0.00136  -0.00084   0.00136   0.02660
   49 C2      .XX      -0.00003   0.00001  -0.00001   0.00001  -0.00687
   50 C2      .YY      -0.00003   0.00002  -0.00001   0.00002  -0.00687
   51 C2      .ZZ      -0.00016  -0.00017  -0.00024  -0.00017  -0.00793
   52 C2      .XY       0.00000  -0.00000   0.00000   0.00000  -0.00000
   53 C2      .XZ      -0.00000   0.00000  -0.00000   0.00000   0.00000
   54 C2      .YZ       0.00000   0.00023  -0.00000  -0.00023  -0.00000
   55 C3      .S       -0.00004   1.01154   0.00004  -0.00066   0.00004
   56 C3      .S       -0.00010  -0.00015  -0.00002   0.00157  -0.00002
   57 C3      .X       -0.00000   0.00000   0.00000  -0.00000  -0.00000
   58 C3      .Y        0.00002   0.00225   0.00056  -0.00180   0.00056
   59 C3      .Z       -0.00002   0.00000   0.00138   0.00000  -0.00138
   60 C3      .S        0.00165  -0.05077  -0.00381   0.00160  -0.00381
   61 C3      .X        0.00000   0.00000   0.00000  -0.00000   0.00000
   62 C3      .Y        0.00074   0.02660   0.00136  -0.00084   0.00136
   63 C3      .Z       -0.00035   0.00000   0.00016   0.00000  -0.00016
   64 C3      .XX      -0.00007  -0.00687   0.00001  -0.00001   0.00001
   65 C3      .YY       0.00002  -0.00793  -0.00017  -0.00024  -0.00017
   66 C3      .ZZ      -0.00003  -0.00687   0.00002  -0.00001   0.00002
   67 C3      .XY      -0.00000   0.00000   0.00000  -0.00000   0.00000
   68 C3      .XZ      -0.00000  -0.00000   0.00000  -0.00000  -0.00000
   69 C3      .YZ       0.00003  -0.00000  -0.00023   0.00000   0.00023
   70 C4      .S        0.00329   0.00004   1.01154   0.00004  -0.00066
   71 C4      .S       -0.01063  -0.00002  -0.00015  -0.00002   0.00157
   72 C4      .X       -0.00000   0.00000   0.00000   0.00000  -0.00000
   73 C4      .Y       -0.00000  -0.00138   0.00000   0.00138   0.00000
   74 C4      .Z        0.01830  -0.00056  -0.00225  -0.00056   0.00180
   75 C4      .S        0.00160  -0.00381  -0.05077  -0.00381   0.00160
   76 C4      .X       -0.00000   0.00000   0.00000   0.00000  -0.00000
   77 C4      .Y       -0.00000  -0.00016   0.00000   0.00016   0.00000
   78 C4      .Z       -0.00303  -0.00136  -0.02660  -0.00136   0.00084
   79 C4      .XX       0.00191   0.00001  -0.00687   0.00001  -0.00001
   80 C4      .YY       0.00191   0.00002  -0.00687   0.00002  -0.00001
   81 C4      .ZZ      -0.00443  -0.00017  -0.00793  -0.00017  -0.00024
   82 C4      .XY       0.00000  -0.00000  -0.00000   0.00000  -0.00000
   83 C4      .XZ       0.00000  -0.00000  -0.00000  -0.00000   0.00000
   84 C4      .YZ      -0.00000  -0.00023   0.00000   0.00023   0.00000
   85 C5      .S       -0.00004  -0.00066   0.00004   1.01154   0.00004
   86 C5      .S       -0.00010   0.00157  -0.00002  -0.00015  -0.00002
   87 C5      .X       -0.00000  -0.00000   0.00000   0.00000   0.00000
   88 C5      .Y       -0.00002   0.00180  -0.00056  -0.00225  -0.00056
   89 C5      .Z       -0.00002   0.00000   0.00138   0.00000  -0.00138
   90 C5      .S        0.00165   0.00160  -0.00381  -0.05077  -0.00381
   91 C5      .X        0.00000  -0.00000   0.00000   0.00000   0.00000
   92 C5      .Y       -0.00074   0.00084  -0.00136  -0.02660  -0.00136
   93 C5      .Z       -0.00035   0.00000   0.00016   0.00000  -0.00016
   94 C5      .XX      -0.00007  -0.00001   0.00001  -0.00687   0.00001
   95 C5      .YY       0.00002  -0.00024  -0.00017  -0.00793  -0.00017
   96 C5      .ZZ      -0.00003  -0.00001   0.00002  -0.00687   0.00002
   97 C5      .XY       0.00000   0.00000  -0.00000  -0.00000  -0.00000
   98 C5      .XZ       0.00000   0.00000   0.00000   0.00000  -0.00000
   99 C5      .YZ      -0.00003  -0.00000   0.00023   0.00000  -0.00023
  100 C6      .S       -0.00004   0.00004   0.00004   0.00004   0.00004
  101 C6      .S       -0.00010  -0.00002  -0.00002  -0.00002  -0.00002
  102 C6      .X        0.00002   0.00056   0.00056   0.00056   0.00056
  103 C6      .Y       -0.00000  -0.00138   0.00000   0.00138   0.00000
  104 C6      .Z       -0.00002   0.00000   0.00138   0.00000  -0.00138
  105 C6      .S        0.00165  -0.00381  -0.00381  -0.00381  -0.00381
  106 C6      .X        0.00074   0.00136   0.00136   0.00136   0.00136
  107 C6      .Y       -0.00000  -0.00016   0.00000   0.00016   0.00000
  108 C6      .Z       -0.00035   0.00000   0.00016   0.00000  -0.00016
  109 C6      .XX       0.00002  -0.00017  -0.00017  -0.00017  -0.00017
  110 C6      .YY      -0.00007   0.00002   0.00001   0.00002   0.00001
  111 C6      .ZZ      -0.00003   0.00001   0.00002   0.00001   0.00002
  112 C6      .XY       0.00000   0.00023  -0.00000  -0.00023  -0.00000
  113 C6      .XZ       0.00003  -0.00000  -0.00023  -0.00000   0.00023
  114 C6      .YZ       0.00000   0.00000  -0.00000  -0.00000   0.00000
  115 C7      .S       -0.00004   0.00004   0.00004   0.00004   0.00004
  116 C7      .S       -0.00010  -0.00002  -0.00002  -0.00002  -0.00002
  117 C7      .X       -0.00002  -0.00056  -0.00056  -0.00056  -0.00056
  118 C7      .Y       -0.00000  -0.00138   0.00000   0.00138   0.00000
  119 C7      .Z       -0.00002   0.00000   0.00138   0.00000  -0.00138
  120 C7      .S        0.00165  -0.00381  -0.00381  -0.00381  -0.00381
  121 C7      .X       -0.00074  -0.00136  -0.00136  -0.00136  -0.00136
  122 C7      .Y       -0.00000  -0.00016   0.00000   0.00016   0.00000
  123 C7      .Z       -0.00035   0.00000   0.00016   0.00000  -0.00016
  124 C7      .XX       0.00002  -0.00017  -0.00017  -0.00017  -0.00017
  125 C7      .YY      -0.00007   0.00002   0.00001   0.00002   0.00001
  126 C7      .ZZ      -0.00003   0.00001   0.00002   0.00001   0.00002
  127 C7      .XY      -0.00000  -0.00023   0.00000   0.00023   0.00000
  128 C7      .XZ      -0.00003   0.00000   0.00023   0.00000  -0.00023
  129 C7      .YZ       0.00000   0.00000  -0.00000  -0.00000   0.00000
  130 O8      .S       -0.00000  -0.00003   0.00012  -0.00003   0.00556
  131 O8      .S        0.00004   0.00003  -0.00059   0.00003  -0.01336
  132 O8      .X        0.00000   0.00000   0.00000   0.00000  -0.00000
  133 O8      .Y        0.00000   0.00177  -0.00000  -0.00177  -0.00000
  134 O8      .Z       -0.00014  -0.00032   0.00114  -0.00032   0.03143
  135 O8      .S        0.00025   0.00029   0.00025   0.00029  -0.01994
  136 O8      .X       -0.00000  -0.00000   0.00000  -0.00000  -0.00000
  137 O8      .Y       -0.00000   0.00112  -0.00000  -0.00112  -0.00000
  138 O8      .Z       -0.00031  -0.00040   0.00030  -0.00040   0.01822
  139 O8      .XX       0.00000  -0.00004  -0.00005  -0.00004   0.00219
  140 O8      .YY       0.00000  -0.00006  -0.00005  -0.00006   0.00219
  141 O8      .ZZ       0.00008   0.00008  -0.00002   0.00008  -0.00263
  142 O8      .XY       0.00000   0.00000   0.00000  -0.00000  -0.00000
  143 O8      .XZ       0.00000   0.00000  -0.00000   0.00000   0.00000
  144 O8      .YZ       0.00000  -0.00001   0.00000   0.00001  -0.00000
  145 O9      .S        0.00003   0.00556  -0.00003   0.00012  -0.00003
  146 O9      .S        0.00019  -0.01336   0.00003  -0.00059   0.00003
  147 O9      .X        0.00000  -0.00000   0.00000   0.00000   0.00000
  148 O9      .Y        0.00000   0.03143  -0.00032   0.00114  -0.00032
  149 O9      .Z        0.00005  -0.00000  -0.00177  -0.00000   0.00177
  150 O9      .S       -0.00127  -0.01994   0.00029   0.00025   0.00029
  151 O9      .X       -0.00000  -0.00000  -0.00000   0.00000  -0.00000
  152 O9      .Y        0.00053   0.01822  -0.00040   0.00030  -0.00040
  153 O9      .Z        0.00006  -0.00000  -0.00112  -0.00000   0.00112
  154 O9      .XX       0.00010   0.00219  -0.00004  -0.00005  -0.00004
  155 O9      .YY       0.00004  -0.00263   0.00008  -0.00002   0.00008
  156 O9      .ZZ       0.00010   0.00219  -0.00006  -0.00005  -0.00006
  157 O9      .XY       0.00000   0.00000   0.00000  -0.00000   0.00000
  158 O9      .XZ      -0.00000  -0.00000  -0.00000  -0.00000   0.00000
  159 O9      .YZ      -0.00001  -0.00000   0.00001   0.00000  -0.00001
  160 O10     .S        1.01378  -0.00003   0.00556  -0.00003   0.00012
  161 O10     .S       -0.03725   0.00003  -0.01336   0.00003  -0.00059
  162 O10     .X        0.00000   0.00000  -0.00000   0.00000   0.00000
  163 O10     .Y        0.00000   0.00177  -0.00000  -0.00177  -0.00000
  164 O10     .Z        0.00594   0.00032  -0.03143   0.00032  -0.00114
  165 O10     .S       -0.05347   0.00029  -0.01994   0.00029   0.00025
  166 O10     .X       -0.00000  -0.00000  -0.00000  -0.00000   0.00000
  167 O10     .Y       -0.00000   0.00112  -0.00000  -0.00112  -0.00000
  168 O10     .Z        0.00737   0.00040  -0.01822   0.00040  -0.00030
  169 O10     .XX      -0.00732  -0.00004   0.00219  -0.00004  -0.00005
  170 O10     .YY      -0.00732  -0.00006   0.00219  -0.00006  -0.00005
  171 O10     .ZZ      -0.00676   0.00008  -0.00263   0.00008  -0.00002
  172 O10     .XY       0.00000   0.00000  -0.00000  -0.00000  -0.00000
  173 O10     .XZ      -0.00000  -0.00000  -0.00000  -0.00000   0.00000
  174 O10     .YZ      -0.00000   0.00001   0.00000  -0.00001  -0.00000
  175 O11     .S        0.00003   0.00012  -0.00003   0.00556  -0.00003
  176 O11     .S        0.00019  -0.00059   0.00003  -0.01336   0.00003
  177 O11     .X        0.00000   0.00000   0.00000  -0.00000   0.00000
  178 O11     .Y       -0.00000  -0.00114   0.00032  -0.03143   0.00032
  179 O11     .Z        0.00005  -0.00000  -0.00177  -0.00000   0.00177
  180 O11     .S       -0.00127   0.00025   0.00029  -0.01994   0.00029
  181 O11     .X       -0.00000   0.00000  -0.00000  -0.00000  -0.00000
  182 O11     .Y       -0.00053  -0.00030   0.00040  -0.01822   0.00040
  183 O11     .Z        0.00006  -0.00000  -0.00112  -0.00000   0.00112
  184 O11     .XX       0.00010  -0.00005  -0.00004   0.00219  -0.00004
  185 O11     .YY       0.00004  -0.00002   0.00008  -0.00263   0.00008
  186 O11     .ZZ       0.00010  -0.00005  -0.00006   0.00219  -0.00006
  187 O11     .XY      -0.00000   0.00000  -0.00000  -0.00000  -0.00000
  188 O11     .XZ      -0.00000  -0.00000  -0.00000  -0.00000   0.00000
  189 O11     .YZ       0.00001  -0.00000  -0.00001   0.00000   0.00001
  190 O12     .S        0.00003  -0.00003  -0.00003  -0.00003  -0.00003
  191 O12     .S        0.00019   0.00003   0.00003   0.00003   0.00003
  192 O12     .X        0.00000  -0.00032  -0.00032  -0.00032  -0.00032
  193 O12     .Y        0.00000   0.00177  -0.00000  -0.00177  -0.00000
  194 O12     .Z        0.00005  -0.00000  -0.00177  -0.00000   0.00177
  195 O12     .S       -0.00127   0.00029   0.00029   0.00029   0.00029
  196 O12     .X        0.00053  -0.00040  -0.00040  -0.00040  -0.00040
  197 O12     .Y       -0.00000   0.00112  -0.00000  -0.00112  -0.00000
  198 O12     .Z        0.00006  -0.00000  -0.00112  -0.00000   0.00112
  199 O12     .XX       0.00004   0.00008   0.00008   0.00008   0.00008
  200 O12     .YY       0.00010  -0.00006  -0.00004  -0.00006  -0.00004
  201 O12     .ZZ       0.00010  -0.00004  -0.00006  -0.00004  -0.00006
  202 O12     .XY       0.00000  -0.00001   0.00000   0.00001   0.00000
  203 O12     .XZ      -0.00001   0.00000   0.00001   0.00000  -0.00001
  204 O12     .YZ      -0.00000  -0.00000   0.00000   0.00000  -0.00000
  205 O13     .S        0.00003  -0.00003  -0.00003  -0.00003  -0.00003
  206 O13     .S        0.00019   0.00003   0.00003   0.00003   0.00003
  207 O13     .X       -0.00000   0.00032   0.00032   0.00032   0.00032
  208 O13     .Y        0.00000   0.00177  -0.00000  -0.00177  -0.00000
  209 O13     .Z        0.00005  -0.00000  -0.00177  -0.00000   0.00177
  210 O13     .S       -0.00127   0.00029   0.00029   0.00029   0.00029
  211 O13     .X       -0.00053   0.00040   0.00040   0.00040   0.00040
  212 O13     .Y       -0.00000   0.00112  -0.00000  -0.00112  -0.00000
  213 O13     .Z        0.00006  -0.00000  -0.00112  -0.00000   0.00112
  214 O13     .XX       0.00004   0.00008   0.00008   0.00008   0.00008
  215 O13     .YY       0.00010  -0.00006  -0.00004  -0.00006  -0.00004
  216 O13     .ZZ       0.00010  -0.00004  -0.00006  -0.00004  -0.00006
  217 O13     .XY      -0.00000   0.00001  -0.00000  -0.00001  -0.00000
  218 O13     .XZ       0.00001  -0.00000  -0.00001  -0.00000   0.00001
  219 O13     .YZ      -0.00000  -0.00000   0.00000   0.00000  -0.00000
                          16        17        18        19        20
                           O         O         O         O         O    
     Eigenvalues --  -277.53621-277.53621-111.86459 -51.53424 -51.53424
    1 Cr1     .S        0.00061   0.00061  -0.07339   0.00000   0.00000
    2 Cr1     .S        0.00111   0.00111  -0.19872   0.00000   0.00000
    3 Cr1     .X       -0.00197   0.00197  -0.00000   0.00000  -0.00000
    4 Cr1     .Y       -0.00000  -0.00000   0.00000  -0.00000  -0.30843
    5 Cr1     .Z       -0.00000  -0.00000   0.00000  -0.30843   0.00000
    6 Cr1     .S       -0.00648  -0.00648   1.12091  -0.00000  -0.00000
    7 Cr1     .X        0.00765  -0.00765   0.00000   0.00000  -0.00000
    8 Cr1     .Y       -0.00000  -0.00000  -0.00000   0.00000   1.07474
    9 Cr1     .Z       -0.00000  -0.00000  -0.00000   1.07474   0.00000
   10 Cr1     .S       -0.01829  -0.01829   0.05988  -0.00000  -0.00000
   11 Cr1     .X        0.00226  -0.00226   0.00000   0.00000  -0.00000
   12 Cr1     .Y       -0.00000  -0.00000   0.00000   0.00000  -0.06273
   13 Cr1     .Z       -0.00000  -0.00000   0.00000  -0.06273   0.00000
   14 Cr1     .S       -0.00145  -0.00145   0.02343  -0.00000  -0.00000
   15 Cr1     .X       -0.00118   0.00118  -0.00000  -0.00000  -0.00000
   16 Cr1     .Y        0.00000   0.00000  -0.00000  -0.00000  -0.00324
   17 Cr1     .Z        0.00000   0.00000   0.00000  -0.00324  -0.00000
   18 Cr1     .XX      -0.00725  -0.00725   0.00435  -0.00000  -0.00000
   19 Cr1     .YY       0.00615   0.00615   0.00435  -0.00000   0.00000
   20 Cr1     .ZZ       0.00615   0.00615   0.00435   0.00000  -0.00000
   21 Cr1     .XY      -0.00000   0.00000   0.00000   0.00000   0.00000
   22 Cr1     .XZ      -0.00000   0.00000   0.00000  -0.00000   0.00000
   23 Cr1     .YZ      -0.00000  -0.00000  -0.00000   0.00000   0.00000
   24 Cr1     .XX      -0.00781  -0.00781   0.00921  -0.00000  -0.00000
   25 Cr1     .YY       0.00188   0.00188   0.00921  -0.00000   0.00000
   26 Cr1     .ZZ       0.00188   0.00188   0.00921   0.00000  -0.00000
   27 Cr1     .XY      -0.00000   0.00000   0.00000  -0.00000  -0.00000
   28 Cr1     .XZ      -0.00000   0.00000   0.00000  -0.00000  -0.00000
   29 Cr1     .YZ      -0.00000   0.00000  -0.00000   0.00000   0.00000
   30 Cr1     .XXX     -0.00022   0.00022  -0.00000   0.00000  -0.00000
   31 Cr1     .YYY      0.00000   0.00000   0.00000  -0.00000   0.00228
   32 Cr1     .ZZZ     -0.00000  -0.00000   0.00000  -0.00228   0.00000
   33 Cr1     .XYY     -0.00058   0.00058  -0.00000   0.00000  -0.00000
   34 Cr1     .XXY      0.00000   0.00000   0.00000  -0.00000   0.00230
   35 Cr1     .XXZ     -0.00000  -0.00000   0.00000  -0.00153   0.00000
   36 Cr1     .XZZ      0.00058  -0.00058   0.00000  -0.00000  -0.00000
   37 Cr1     .YZZ      0.00000   0.00000   0.00000  -0.00000   0.00153
   38 Cr1     .YYZ     -0.00000  -0.00000   0.00000  -0.00153   0.00000
   39 Cr1     .XYZ      0.00000   0.00000  -0.00000   0.00000   0.00000
   40 C2      .S        0.00004   0.00004  -0.00902   0.01091  -0.00000
   41 C2      .S       -0.00002  -0.00002   0.02232  -0.03219  -0.00000
   42 C2      .X       -0.00138   0.00138  -0.00000  -0.00000   0.00000
   43 C2      .Y        0.00000   0.00000  -0.00000   0.00000  -0.00672
   44 C2      .Z        0.00056   0.00056  -0.03084   0.03160  -0.00000
   45 C2      .S       -0.00381  -0.00381   0.04196  -0.01847  -0.00000
   46 C2      .X       -0.00016   0.00016   0.00000  -0.00000   0.00000
   47 C2      .Y        0.00000   0.00000   0.00000   0.00000   0.00489
   48 C2      .Z        0.00136   0.00136  -0.02571   0.01093  -0.00000
   49 C2      .XX       0.00002   0.00002   0.00003  -0.00163  -0.00000
   50 C2      .YY       0.00001   0.00001   0.00003  -0.00163  -0.00000
   51 C2      .ZZ      -0.00017  -0.00017  -0.00293   0.00696  -0.00000
   52 C2      .XY       0.00000  -0.00000   0.00000   0.00000   0.00000
   53 C2      .XZ       0.00023  -0.00023  -0.00000  -0.00000  -0.00000
   54 C2      .YZ      -0.00000  -0.00000  -0.00000   0.00000  -0.00082
   55 C3      .S        0.00004   0.00004  -0.00902  -0.00000   0.01091
   56 C3      .S       -0.00002  -0.00002   0.02232  -0.00000  -0.03219
   57 C3      .X       -0.00138   0.00138   0.00000  -0.00000  -0.00000
   58 C3      .Y        0.00056   0.00056  -0.03084  -0.00000   0.03160
   59 C3      .Z        0.00000   0.00000  -0.00000  -0.00672   0.00000
   60 C3      .S       -0.00381  -0.00381   0.04196  -0.00000  -0.01847
   61 C3      .X       -0.00016   0.00016   0.00000  -0.00000   0.00000
   62 C3      .Y        0.00136   0.00136  -0.02571  -0.00000   0.01093
   63 C3      .Z        0.00000   0.00000  -0.00000   0.00489   0.00000
   64 C3      .XX       0.00002   0.00002   0.00003  -0.00000  -0.00163
   65 C3      .YY      -0.00017  -0.00017  -0.00293  -0.00000   0.00696
   66 C3      .ZZ       0.00001   0.00001   0.00003  -0.00000  -0.00163
   67 C3      .XY       0.00023  -0.00023  -0.00000  -0.00000  -0.00000
   68 C3      .XZ       0.00000  -0.00000   0.00000   0.00000   0.00000
   69 C3      .YZ      -0.00000  -0.00000  -0.00000  -0.00082   0.00000
   70 C4      .S        0.00004   0.00004  -0.00902  -0.01091  -0.00000
   71 C4      .S       -0.00002  -0.00002   0.02232   0.03219   0.00000
   72 C4      .X       -0.00138   0.00138  -0.00000   0.00000  -0.00000
   73 C4      .Y        0.00000   0.00000  -0.00000  -0.00000  -0.00672
   74 C4      .Z       -0.00056  -0.00056   0.03084   0.03160   0.00000
   75 C4      .S       -0.00381  -0.00381   0.04196   0.01847   0.00000
   76 C4      .X       -0.00016   0.00016   0.00000   0.00000   0.00000
   77 C4      .Y        0.00000   0.00000   0.00000  -0.00000   0.00489
   78 C4      .Z       -0.00136  -0.00136   0.02571   0.01093   0.00000
   79 C4      .XX       0.00002   0.00002   0.00003   0.00163  -0.00000
   80 C4      .YY       0.00001   0.00001   0.00003   0.00163  -0.00000
   81 C4      .ZZ      -0.00017  -0.00017  -0.00293  -0.00696  -0.00000
   82 C4      .XY       0.00000  -0.00000   0.00000   0.00000   0.00000
   83 C4      .XZ      -0.00023   0.00023   0.00000  -0.00000   0.00000
   84 C4      .YZ       0.00000   0.00000   0.00000   0.00000   0.00082
   85 C5      .S        0.00004   0.00004  -0.00902  -0.00000  -0.01091
   86 C5      .S       -0.00002  -0.00002   0.02232  -0.00000   0.03219
   87 C5      .X       -0.00138   0.00138   0.00000  -0.00000  -0.00000
   88 C5      .Y       -0.00056  -0.00056   0.03084   0.00000   0.03160
   89 C5      .Z        0.00000   0.00000  -0.00000  -0.00672  -0.00000
   90 C5      .S       -0.00381  -0.00381   0.04196  -0.00000   0.01847
   91 C5      .X       -0.00016   0.00016   0.00000  -0.00000   0.00000
   92 C5      .Y       -0.00136  -0.00136   0.02571   0.00000   0.01093
   93 C5      .Z        0.00000   0.00000  -0.00000   0.00489  -0.00000
   94 C5      .XX       0.00002   0.00002   0.00003  -0.00000   0.00163
   95 C5      .YY      -0.00017  -0.00017  -0.00293  -0.00000  -0.00696
   96 C5      .ZZ       0.00001   0.00001   0.00003  -0.00000   0.00163
   97 C5      .XY      -0.00023   0.00023   0.00000   0.00000  -0.00000
   98 C5      .XZ       0.00000  -0.00000   0.00000   0.00000   0.00000
   99 C5      .YZ       0.00000   0.00000   0.00000   0.00082   0.00000
  100 C6      .S        1.01154  -0.00066  -0.00902  -0.00000  -0.00000
  101 C6      .S       -0.00015   0.00157   0.02232  -0.00000  -0.00000
  102 C6      .X        0.00225  -0.00180  -0.03084  -0.00000  -0.00000
  103 C6      .Y       -0.00000   0.00000  -0.00000   0.00000  -0.00672
  104 C6      .Z       -0.00000   0.00000  -0.00000  -0.00672  -0.00000
  105 C6      .S       -0.05077   0.00160   0.04196  -0.00000  -0.00000
  106 C6      .X        0.02660  -0.00084  -0.02571  -0.00000  -0.00000
  107 C6      .Y        0.00000   0.00000   0.00000   0.00000   0.00489
  108 C6      .Z        0.00000   0.00000  -0.00000   0.00489  -0.00000
  109 C6      .XX      -0.00793  -0.00024  -0.00293  -0.00000  -0.00000
  110 C6      .YY      -0.00687  -0.00001   0.00003  -0.00000  -0.00000
  111 C6      .ZZ      -0.00687  -0.00001   0.00003  -0.00000  -0.00000
  112 C6      .XY      -0.00000   0.00000  -0.00000  -0.00000  -0.00082
  113 C6      .XZ      -0.00000   0.00000  -0.00000  -0.00082   0.00000
  114 C6      .YZ      -0.00000  -0.00000  -0.00000  -0.00000  -0.00000
  115 C7      .S       -0.00066   1.01154  -0.00902  -0.00000  -0.00000
  116 C7      .S        0.00157  -0.00015   0.02232  -0.00000  -0.00000
  117 C7      .X        0.00180  -0.00225   0.03084   0.00000   0.00000
  118 C7      .Y        0.00000  -0.00000  -0.00000  -0.00000  -0.00672
  119 C7      .Z        0.00000  -0.00000  -0.00000  -0.00672  -0.00000
  120 C7      .S        0.00160  -0.05077   0.04196  -0.00000  -0.00000
  121 C7      .X        0.00084  -0.02660   0.02571   0.00000   0.00000
  122 C7      .Y        0.00000   0.00000   0.00000  -0.00000   0.00489
  123 C7      .Z        0.00000   0.00000  -0.00000   0.00489  -0.00000
  124 C7      .XX      -0.00024  -0.00793  -0.00293  -0.00000  -0.00000
  125 C7      .YY      -0.00001  -0.00687   0.00003  -0.00000  -0.00000
  126 C7      .ZZ      -0.00001  -0.00687   0.00003  -0.00000  -0.00000
  127 C7      .XY      -0.00000   0.00000   0.00000  -0.00000   0.00082
  128 C7      .XZ      -0.00000   0.00000   0.00000   0.00082  -0.00000
  129 C7      .YZ       0.00000   0.00000  -0.00000  -0.00000  -0.00000
  130 O8      .S       -0.00003  -0.00003   0.00209  -0.00259  -0.00000
  131 O8      .S        0.00003   0.00003  -0.00903   0.00957   0.00000
  132 O8      .X        0.00177  -0.00177  -0.00000   0.00000   0.00000
  133 O8      .Y       -0.00000  -0.00000   0.00000  -0.00000  -0.00073
  134 O8      .Z       -0.00032  -0.00032   0.01075  -0.01165  -0.00000
  135 O8      .S        0.00029   0.00029   0.00582  -0.00117   0.00000
  136 O8      .X        0.00112  -0.00112   0.00000   0.00000   0.00000
  137 O8      .Y       -0.00000  -0.00000   0.00000  -0.00000  -0.00185
  138 O8      .Z       -0.00040  -0.00040   0.00192  -0.00204  -0.00000
  139 O8      .XX      -0.00006  -0.00006  -0.00065   0.00082  -0.00000
  140 O8      .YY      -0.00004  -0.00004  -0.00065   0.00082  -0.00000
  141 O8      .ZZ       0.00008   0.00008  -0.00035  -0.00079  -0.00000
  142 O8      .XY       0.00000  -0.00000  -0.00000   0.00000  -0.00000
  143 O8      .XZ      -0.00001   0.00001  -0.00000  -0.00000   0.00000
  144 O8      .YZ       0.00000   0.00000   0.00000   0.00000   0.00041
  145 O9      .S       -0.00003  -0.00003   0.00209  -0.00000  -0.00259
  146 O9      .S        0.00003   0.00003  -0.00903   0.00000   0.00957
  147 O9      .X        0.00177  -0.00177  -0.00000   0.00000   0.00000
  148 O9      .Y       -0.00032  -0.00032   0.01075  -0.00000  -0.01165
  149 O9      .Z       -0.00000  -0.00000   0.00000  -0.00073  -0.00000
  150 O9      .S        0.00029   0.00029   0.00582   0.00000  -0.00117
  151 O9      .X        0.00112  -0.00112   0.00000   0.00000   0.00000
  152 O9      .Y       -0.00040  -0.00040   0.00192  -0.00000  -0.00204
  153 O9      .Z       -0.00000  -0.00000   0.00000  -0.00185  -0.00000
  154 O9      .XX      -0.00006  -0.00006  -0.00065  -0.00000   0.00082
  155 O9      .YY       0.00008   0.00008  -0.00035   0.00000  -0.00079
  156 O9      .ZZ      -0.00004  -0.00004  -0.00065  -0.00000   0.00082
  157 O9      .XY      -0.00001   0.00001  -0.00000  -0.00000   0.00000
  158 O9      .XZ       0.00000  -0.00000  -0.00000  -0.00000  -0.00000
  159 O9      .YZ       0.00000   0.00000   0.00000   0.00041   0.00000
  160 O10     .S       -0.00003  -0.00003   0.00209   0.00259  -0.00000
  161 O10     .S        0.00003   0.00003  -0.00903  -0.00957   0.00000
  162 O10     .X        0.00177  -0.00177  -0.00000  -0.00000   0.00000
  163 O10     .Y       -0.00000  -0.00000   0.00000   0.00000  -0.00073
  164 O10     .Z        0.00032   0.00032  -0.01075  -0.01165   0.00000
  165 O10     .S        0.00029   0.00029   0.00582   0.00117   0.00000
  166 O10     .X        0.00112  -0.00112   0.00000  -0.00000   0.00000
  167 O10     .Y       -0.00000  -0.00000   0.00000   0.00000  -0.00185
  168 O10     .Z        0.00040   0.00040  -0.00192  -0.00204   0.00000
  169 O10     .XX      -0.00006  -0.00006  -0.00065  -0.00082  -0.00000
  170 O10     .YY      -0.00004  -0.00004  -0.00065  -0.00082  -0.00000
  171 O10     .ZZ       0.00008   0.00008  -0.00035   0.00079  -0.00000
  172 O10     .XY       0.00000  -0.00000  -0.00000   0.00000   0.00000
  173 O10     .XZ       0.00001  -0.00001   0.00000  -0.00000  -0.00000
  174 O10     .YZ      -0.00000  -0.00000  -0.00000   0.00000  -0.00041
  175 O11     .S       -0.00003  -0.00003   0.00209  -0.00000   0.00259
  176 O11     .S        0.00003   0.00003  -0.00903   0.00000  -0.00957
  177 O11     .X        0.00177  -0.00177  -0.00000  -0.00000  -0.00000
  178 O11     .Y        0.00032   0.00032  -0.01075   0.00000  -0.01165
  179 O11     .Z       -0.00000  -0.00000   0.00000  -0.00073   0.00000
  180 O11     .S        0.00029   0.00029   0.00582   0.00000   0.00117
  181 O11     .X        0.00112  -0.00112   0.00000   0.00000  -0.00000
  182 O11     .Y        0.00040   0.00040  -0.00192   0.00000  -0.00204
  183 O11     .Z       -0.00000  -0.00000   0.00000  -0.00185   0.00000
  184 O11     .XX      -0.00006  -0.00006  -0.00065  -0.00000  -0.00082
  185 O11     .YY       0.00008   0.00008  -0.00035   0.00000   0.00079
  186 O11     .ZZ      -0.00004  -0.00004  -0.00065  -0.00000  -0.00082
  187 O11     .XY       0.00001  -0.00001   0.00000  -0.00000  -0.00000
  188 O11     .XZ       0.00000  -0.00000  -0.00000  -0.00000  -0.00000
  189 O11     .YZ      -0.00000  -0.00000  -0.00000  -0.00041   0.00000
  190 O12     .S        0.00556   0.00012   0.00209  -0.00000  -0.00000
  191 O12     .S       -0.01336  -0.00059  -0.00903   0.00000   0.00000
  192 O12     .X        0.03143   0.00114   0.01075  -0.00000  -0.00000
  193 O12     .Y        0.00000  -0.00000   0.00000  -0.00000  -0.00073
  194 O12     .Z        0.00000  -0.00000   0.00000  -0.00073   0.00000
  195 O12     .S       -0.01994   0.00025   0.00582   0.00000   0.00000
  196 O12     .X        0.01822   0.00030   0.00192  -0.00000  -0.00000
  197 O12     .Y        0.00000  -0.00000   0.00000  -0.00000  -0.00185
  198 O12     .Z        0.00000  -0.00000   0.00000  -0.00185   0.00000
  199 O12     .XX      -0.00263  -0.00002  -0.00035   0.00000  -0.00000
  200 O12     .YY       0.00219  -0.00005  -0.00065  -0.00000  -0.00000
  201 O12     .ZZ       0.00219  -0.00005  -0.00065  -0.00000  -0.00000
  202 O12     .XY      -0.00000   0.00000   0.00000  -0.00000   0.00041
  203 O12     .XZ      -0.00000   0.00000   0.00000   0.00041   0.00000
  204 O12     .YZ      -0.00000  -0.00000  -0.00000   0.00000   0.00000
  205 O13     .S        0.00012   0.00556   0.00209  -0.00000  -0.00000
  206 O13     .S       -0.00059  -0.01336  -0.00903   0.00000   0.00000
  207 O13     .X       -0.00114  -0.03143  -0.01075   0.00000   0.00000
  208 O13     .Y       -0.00000   0.00000   0.00000   0.00000  -0.00073
  209 O13     .Z       -0.00000   0.00000   0.00000  -0.00073   0.00000
  210 O13     .S        0.00025  -0.01994   0.00582   0.00000   0.00000
  211 O13     .X       -0.00030  -0.01822  -0.00192   0.00000   0.00000
  212 O13     .Y       -0.00000   0.00000   0.00000   0.00000  -0.00185
  213 O13     .Z       -0.00000   0.00000   0.00000  -0.00185   0.00000
  214 O13     .XX      -0.00002  -0.00263  -0.00035   0.00000  -0.00000
  215 O13     .YY      -0.00005   0.00219  -0.00065  -0.00000  -0.00000
  216 O13     .ZZ      -0.00005   0.00219  -0.00065  -0.00000  -0.00000
  217 O13     .XY      -0.00000   0.00000  -0.00000   0.00000  -0.00041
  218 O13     .XZ      -0.00000   0.00000  -0.00000  -0.00041  -0.00000
  219 O13     .YZ      -0.00000  -0.00000   0.00000   0.00000   0.00000
                          21        22        23        24        25
                           O         O         O         O         O    
     Eigenvalues --   -51.53424 -34.35840 -34.35838 -34.35838 -34.35840
    1 Cr1     .S        0.00000   0.00021   0.00021   0.00021   0.00021
    2 Cr1     .S       -0.00000   0.00265   0.00265   0.00265   0.00265
    3 Cr1     .X       -0.30843   0.00000   0.00000   0.00000   0.00000
    4 Cr1     .Y        0.00000  -0.00000  -0.00338   0.00338  -0.00000
    5 Cr1     .Z        0.00000   0.00338  -0.00000  -0.00000  -0.00338
    6 Cr1     .S       -0.00000  -0.00214  -0.00214  -0.00214  -0.00214
    7 Cr1     .X        1.07474  -0.00000  -0.00000  -0.00000  -0.00000
    8 Cr1     .Y        0.00000  -0.00000  -0.00152   0.00152  -0.00000
    9 Cr1     .Z       -0.00000   0.00152  -0.00000  -0.00000  -0.00152
   10 Cr1     .S       -0.00000   0.01532   0.01533   0.01533   0.01532
   11 Cr1     .X       -0.06273   0.00000  -0.00000  -0.00000   0.00000
   12 Cr1     .Y        0.00000  -0.00000  -0.07064   0.07064  -0.00000
   13 Cr1     .Z       -0.00000   0.07064  -0.00000  -0.00000  -0.07064
   14 Cr1     .S       -0.00000  -0.00950  -0.00951  -0.00951  -0.00950
   15 Cr1     .X       -0.00324   0.00000   0.00000   0.00000   0.00000
   16 Cr1     .Y       -0.00000   0.00000  -0.00210   0.00210   0.00000
   17 Cr1     .Z       -0.00000   0.00210   0.00000   0.00000  -0.00210
   18 Cr1     .XX      -0.00000   0.00822   0.00822   0.00822   0.00822
   19 Cr1     .YY       0.00000   0.00822  -0.02326  -0.02326   0.00822
   20 Cr1     .ZZ       0.00000  -0.02326   0.00821   0.00821  -0.02326
   21 Cr1     .XY       0.00000   0.00000   0.00000  -0.00000  -0.00000
   22 Cr1     .XZ       0.00000  -0.00000  -0.00000  -0.00000   0.00000
   23 Cr1     .YZ       0.00000  -0.00000  -0.00000   0.00000   0.00000
   24 Cr1     .XX       0.00000   0.00253   0.00253   0.00253   0.00253
   25 Cr1     .YY      -0.00000   0.00253  -0.02202  -0.02202   0.00253
   26 Cr1     .ZZ      -0.00000  -0.02203   0.00253   0.00253  -0.02203
   27 Cr1     .XY       0.00000   0.00000   0.00000  -0.00000   0.00000
   28 Cr1     .XZ       0.00000  -0.00000  -0.00000   0.00000   0.00000
   29 Cr1     .YZ       0.00000   0.00000  -0.00000   0.00000  -0.00000
   30 Cr1     .XXX     -0.00057   0.00000   0.00000   0.00000   0.00000
   31 Cr1     .YYY     -0.00000  -0.00000  -0.00057   0.00057  -0.00000
   32 Cr1     .ZZZ     -0.00000  -0.00057   0.00000   0.00000   0.00057
   33 Cr1     .XYY     -0.00153   0.00000   0.00000   0.00000   0.00000
   34 Cr1     .XXY     -0.00000  -0.00000  -0.00058   0.00058  -0.00000
   35 Cr1     .XXZ     -0.00000  -0.00038   0.00000   0.00000   0.00038
   36 Cr1     .XZZ      0.00153  -0.00000  -0.00000  -0.00000  -0.00000
   37 Cr1     .YZZ     -0.00000  -0.00000  -0.00038   0.00038  -0.00000
   38 Cr1     .YYZ     -0.00000  -0.00038   0.00000   0.00000   0.00038
   39 Cr1     .XYZ     -0.00000   0.00000   0.00000  -0.00000  -0.00000
   40 C2      .S        0.00000  -0.00212   0.00117   0.00117  -0.04172
   41 C2      .S       -0.00000   0.00905  -0.00205  -0.00205   0.23292
   42 C2      .X       -0.00672  -0.00000  -0.00000  -0.00000   0.00000
   43 C2      .Y        0.00000   0.00000  -0.00475   0.00475   0.00000
   44 C2      .Z        0.00000  -0.00826   0.00353   0.00353   0.33397
   45 C2      .S       -0.00000  -0.01981  -0.00177  -0.00177   0.04440
   46 C2      .X        0.00489  -0.00000  -0.00000  -0.00000  -0.00000
   47 C2      .Y        0.00000   0.00000   0.00104  -0.00104   0.00000
   48 C2      .Z        0.00000  -0.00468   0.00979   0.00979  -0.04907
   49 C2      .XX       0.00000   0.00068   0.00072   0.00072  -0.02868
   50 C2      .YY      -0.00000   0.00068  -0.00039  -0.00039  -0.02868
   51 C2      .ZZ       0.00000   0.00001   0.00087   0.00087   0.02426
   52 C2      .XY      -0.00000   0.00000  -0.00000   0.00000  -0.00000
   53 C2      .XZ      -0.00082   0.00000   0.00000   0.00000   0.00000
   54 C2      .YZ      -0.00000   0.00000   0.00101  -0.00101  -0.00000
   55 C3      .S       -0.00000   0.00117  -0.04172  -0.00212   0.00117
   56 C3      .S       -0.00000  -0.00206   0.23292   0.00905  -0.00206
   57 C3      .X       -0.00672  -0.00000   0.00000  -0.00000  -0.00000
   58 C3      .Y        0.00000   0.00352   0.33397  -0.00826   0.00352
   59 C3      .Z       -0.00000   0.00475   0.00000   0.00000  -0.00475
   60 C3      .S       -0.00000  -0.00178   0.04441  -0.01981  -0.00178
   61 C3      .X        0.00489  -0.00000  -0.00000  -0.00000  -0.00000
   62 C3      .Y       -0.00000   0.00979  -0.04906  -0.00468   0.00979
   63 C3      .Z        0.00000  -0.00104   0.00000   0.00000   0.00104
   64 C3      .XX      -0.00000   0.00072  -0.02868   0.00068   0.00072
   65 C3      .YY      -0.00000   0.00087   0.02426   0.00001   0.00087
   66 C3      .ZZ      -0.00000  -0.00039  -0.02868   0.00068  -0.00039
   67 C3      .XY      -0.00082   0.00000   0.00000   0.00000   0.00000
   68 C3      .XZ      -0.00000   0.00000  -0.00000   0.00000  -0.00000
   69 C3      .YZ      -0.00000  -0.00101  -0.00000   0.00000   0.00101
   70 C4      .S        0.00000  -0.04172   0.00117   0.00117  -0.00212
   71 C4      .S       -0.00000   0.23292  -0.00205  -0.00205   0.00905
   72 C4      .X       -0.00672   0.00000  -0.00000  -0.00000  -0.00000
   73 C4      .Y       -0.00000   0.00000  -0.00475   0.00475   0.00000
   74 C4      .Z       -0.00000  -0.33397  -0.00353  -0.00353   0.00826
   75 C4      .S       -0.00000   0.04440  -0.00177  -0.00177  -0.01981
   76 C4      .X        0.00489  -0.00000  -0.00000  -0.00000  -0.00000
   77 C4      .Y       -0.00000   0.00000   0.00104  -0.00104   0.00000
   78 C4      .Z       -0.00000   0.04907  -0.00979  -0.00979   0.00468
[...]
   41 C2      .S        0.02474   0.12066   0.02474   0.02474   0.79868
   42 C2      .X        0.00000   0.00000   0.02272  -0.00000   0.00000
   43 C2      .Y       -0.02272  -0.00000  -0.00000   0.02272  -0.00000
   44 C2      .Z       -0.03296   0.02862  -0.03296  -0.03296   0.05069
   45 C2      .S       -0.00996  -0.00189  -0.00996  -0.00996  -4.53956
   46 C2      .X        0.00000   0.00000  -0.12079   0.00000  -0.00000
   47 C2      .Y        0.12079   0.00000   0.00000  -0.12079  -0.00000
   48 C2      .Z       -0.03218   0.78049  -0.03218  -0.03218   6.00233
   49 C2      .XX       0.01135   0.02207   0.00585   0.01135   0.25275
   50 C2      .YY       0.00585   0.02207   0.01135   0.00585   0.25275
   51 C2      .ZZ       0.02929  -0.04103   0.02929   0.02929   0.02127
   52 C2      .XY      -0.00000   0.00000  -0.00000  -0.00000  -0.00000
   53 C2      .XZ      -0.00000  -0.00000   0.01239   0.00000  -0.00000
   54 C2      .YZ      -0.01239   0.00000   0.00000   0.01239   0.00000
   55 C3      .S        0.02264   0.00140   0.00140  -0.32508   0.17463
   56 C3      .S        0.12066   0.02474   0.02474   1.35743   0.79868
   57 C3      .X       -0.00000  -0.00000   0.02272   0.00000   0.00000
   58 C3      .Y        0.02862  -0.03296  -0.03296  -0.58201   0.05069
   59 C3      .Z       -0.00000  -0.02272  -0.00000  -0.00000  -0.00000
   60 C3      .S       -0.00189  -0.00996  -0.00996  -0.20070  -4.53956
   61 C3      .X        0.00000   0.00000  -0.12079   0.00000  -0.00000
   62 C3      .Y        0.78049  -0.03218  -0.03218  -1.24119   6.00233
   63 C3      .Z        0.00000   0.12079   0.00000   0.00000  -0.00000
   64 C3      .XX       0.02207   0.01135   0.00585  -0.62926   0.25275
   65 C3      .YY      -0.04103   0.02929   0.02929  -2.63020   0.02127
   66 C3      .ZZ       0.02207   0.00585   0.01135  -0.62926   0.25275
   67 C3      .XY       0.00000   0.00000   0.01239  -0.00000  -0.00000
   68 C3      .XZ       0.00000  -0.00000  -0.00000  -0.00000   0.00000
   69 C3      .YZ       0.00000  -0.01239   0.00000   0.00000  -0.00000
   70 C4      .S        0.00140  -0.32508   0.00140   0.00140   0.17463
   71 C4      .S        0.02474   1.35743   0.02474   0.02474   0.79868
   72 C4      .X        0.00000  -0.00000   0.02272   0.00000   0.00000
   73 C4      .Y       -0.02272  -0.00000  -0.00000   0.02272  -0.00000
   74 C4      .Z        0.03296   0.58202   0.03296   0.03296  -0.05069
   75 C4      .S       -0.00996  -0.20070  -0.00996  -0.00996  -4.53956
   76 C4      .X        0.00000   0.00000  -0.12079   0.00000  -0.00000
   77 C4      .Y        0.12079   0.00000   0.00000  -0.12079  -0.00000
   78 C4      .Z        0.03218   1.24119   0.03218   0.03218  -6.00233
   79 C4      .XX       0.01135  -0.62926   0.00585   0.01135   0.25275
   80 C4      .YY       0.00585  -0.62926   0.01135   0.00585   0.25275
   81 C4      .ZZ       0.02929  -2.63020   0.02929   0.02929   0.02127
   82 C4      .XY      -0.00000  -0.00000  -0.00000   0.00000   0.00000
   83 C4      .XZ      -0.00000   0.00000  -0.01239  -0.00000   0.00000
   84 C4      .YZ       0.01239  -0.00000  -0.00000  -0.01239   0.00000
   85 C5      .S       -0.32508   0.00140   0.00140   0.02264   0.17463
   86 C5      .S        1.35743   0.02474   0.02474   0.12066   0.79868
   87 C5      .X        0.00000  -0.00000   0.02272   0.00000  -0.00000
   88 C5      .Y        0.58201   0.03296   0.03296  -0.02862  -0.05069
   89 C5      .Z       -0.00000  -0.02272  -0.00000  -0.00000  -0.00000
   90 C5      .S       -0.20070  -0.00996  -0.00996  -0.00189  -4.53956
   91 C5      .X        0.00000   0.00000  -0.12079   0.00000  -0.00000
   92 C5      .Y        1.24119   0.03218   0.03218  -0.78049  -6.00233
   93 C5      .Z        0.00000   0.12079   0.00000   0.00000  -0.00000
   94 C5      .XX      -0.62926   0.01135   0.00585   0.02207   0.25275
   95 C5      .YY      -2.63020   0.02929   0.02929  -0.04103   0.02127
   96 C5      .ZZ      -0.62926   0.00585   0.01135   0.02207   0.25275
   97 C5      .XY      -0.00000  -0.00000  -0.01239  -0.00000   0.00000
   98 C5      .XZ       0.00000   0.00000  -0.00000   0.00000  -0.00000
   99 C5      .YZ      -0.00000   0.01239  -0.00000  -0.00000  -0.00000
  100 C6      .S        0.00140   0.00140  -0.32508   0.00140   0.17463
  101 C6      .S        0.02474   0.02474   1.35743   0.02474   0.79868
  102 C6      .X       -0.03296  -0.03296  -0.58201  -0.03296   0.05069
  103 C6      .Y       -0.02272  -0.00000  -0.00000   0.02272  -0.00000
  104 C6      .Z       -0.00000  -0.02272   0.00000  -0.00000  -0.00000
  105 C6      .S       -0.00996  -0.00996  -0.20070  -0.00996  -4.53956
  106 C6      .X       -0.03218  -0.03218  -1.24119  -0.03218   6.00233
  107 C6      .Y        0.12079   0.00000   0.00000  -0.12079  -0.00000
  108 C6      .Z        0.00000   0.12079   0.00000   0.00000  -0.00000
  109 C6      .XX       0.02929   0.02929  -2.63020   0.02929   0.02127
  110 C6      .YY       0.00585   0.01135  -0.62926   0.00585   0.25275
  111 C6      .ZZ       0.01135   0.00585  -0.62926   0.01135   0.25275
  112 C6      .XY      -0.01239   0.00000   0.00000   0.01239   0.00000
  113 C6      .XZ       0.00000  -0.01239   0.00000   0.00000  -0.00000
  114 C6      .YZ      -0.00000  -0.00000   0.00000   0.00000   0.00000
  115 C7      .S        0.00140   0.00140   0.02264   0.00140   0.17463
  116 C7      .S        0.02474   0.02474   0.12066   0.02474   0.79868
  117 C7      .X        0.03296   0.03296  -0.02862   0.03296  -0.05069
  118 C7      .Y       -0.02272  -0.00000  -0.00000   0.02272  -0.00000
  119 C7      .Z       -0.00000  -0.02272  -0.00000  -0.00000  -0.00000
  120 C7      .S       -0.00996  -0.00996  -0.00189  -0.00996  -4.53956
  121 C7      .X        0.03218   0.03218  -0.78049   0.03218  -6.00233
  122 C7      .Y        0.12079   0.00000   0.00000  -0.12079  -0.00000
  123 C7      .Z        0.00000   0.12079   0.00000   0.00000  -0.00000
  124 C7      .XX       0.02929   0.02929  -0.04103   0.02929   0.02127
  125 C7      .YY       0.00585   0.01135   0.02207   0.00585   0.25275
  126 C7      .ZZ       0.01135   0.00585   0.02207   0.01135   0.25275
  127 C7      .XY       0.01239  -0.00000  -0.00000  -0.01239  -0.00000
  128 C7      .XZ      -0.00000   0.01239  -0.00000  -0.00000  -0.00000
  129 C7      .YZ       0.00000   0.00000   0.00000  -0.00000   0.00000
  130 O8      .S       -0.00244   0.03384  -0.00244  -0.00244   0.16684
  131 O8      .S       -0.01079   0.10247  -0.01079  -0.01079   0.53625
  132 O8      .X        0.00000  -0.00000  -0.01109   0.00000  -0.00000
  133 O8      .Y        0.01109   0.00000   0.00000  -0.01109   0.00000
  134 O8      .Z        0.00813  -0.01394   0.00813   0.00813  -0.03961
  135 O8      .S        0.04935  -0.84787   0.04935   0.04935  -4.45877
  136 O8      .X       -0.00000  -0.00000   0.04454  -0.00000   0.00000
  137 O8      .Y       -0.04454   0.00000   0.00000   0.04454   0.00000
  138 O8      .Z       -0.01729   0.20896  -0.01729  -0.01729   0.90895
  139 O8      .XX      -0.00941   0.09393  -0.00823  -0.00941   0.47016
  140 O8      .YY      -0.00823   0.09393  -0.00941  -0.00823   0.47016
  141 O8      .ZZ      -0.00961   0.08176  -0.00961  -0.00961   0.42588
  142 O8      .XY       0.00000   0.00000  -0.00000   0.00000   0.00000
  143 O8      .XZ       0.00000   0.00000  -0.01088  -0.00000  -0.00000
  144 O8      .YZ       0.01088   0.00000  -0.00000  -0.01088  -0.00000
  145 O9      .S        0.03384  -0.00244  -0.00244  -0.04019   0.16684
  146 O9      .S        0.10247  -0.01079  -0.01079   0.28488   0.53625
  147 O9      .X        0.00000   0.00000  -0.01109   0.00000  -0.00000
  148 O9      .Y       -0.01394   0.00813   0.00813  -0.65037  -0.03961
  149 O9      .Z        0.00000   0.01109   0.00000   0.00000   0.00000
  150 O9      .S       -0.84788   0.04935   0.04935   1.82934  -4.45877
  151 O9      .X       -0.00000  -0.00000   0.04454  -0.00000   0.00000
  152 O9      .Y        0.20896  -0.01729  -0.01729  -0.99693   0.90895
  153 O9      .Z        0.00000  -0.04454   0.00000   0.00000   0.00000
  154 O9      .XX       0.09393  -0.00941  -0.00823  -0.24909   0.47016
  155 O9      .YY       0.08176  -0.00961  -0.00961   0.59902   0.42588
  156 O9      .ZZ       0.09393  -0.00823  -0.00941  -0.24909   0.47016
  157 O9      .XY       0.00000  -0.00000  -0.01088   0.00000  -0.00000
  158 O9      .XZ       0.00000  -0.00000  -0.00000  -0.00000   0.00000
  159 O9      .YZ       0.00000   0.01088   0.00000   0.00000  -0.00000
  160 O10     .S       -0.00244  -0.04019  -0.00244  -0.00244   0.16684
  161 O10     .S       -0.01079   0.28488  -0.01079  -0.01079   0.53625
  162 O10     .X        0.00000   0.00000  -0.01109  -0.00000  -0.00000
  163 O10     .Y        0.01109   0.00000   0.00000  -0.01109  -0.00000
  164 O10     .Z       -0.00813   0.65037  -0.00813  -0.00813   0.03961
  165 O10     .S        0.04935   1.82934   0.04935   0.04935  -4.45877
  166 O10     .X       -0.00000  -0.00000   0.04454  -0.00000   0.00000
  167 O10     .Y       -0.04454   0.00000   0.00000   0.04454   0.00000
  168 O10     .Z        0.01729   0.99693   0.01729   0.01729  -0.90895
  169 O10     .XX      -0.00941  -0.24909  -0.00823  -0.00941   0.47016
  170 O10     .YY      -0.00823  -0.24909  -0.00941  -0.00823   0.47016
  171 O10     .ZZ      -0.00961   0.59902  -0.00961  -0.00961   0.42588
  172 O10     .XY       0.00000  -0.00000  -0.00000  -0.00000   0.00000
  173 O10     .XZ       0.00000   0.00000   0.01088  -0.00000   0.00000
  174 O10     .YZ      -0.01088  -0.00000  -0.00000   0.01088   0.00000
  175 O11     .S       -0.04019  -0.00244  -0.00244   0.03384   0.16684
  176 O11     .S        0.28488  -0.01079  -0.01079   0.10247   0.53625
  177 O11     .X       -0.00000   0.00000  -0.01109   0.00000  -0.00000
  178 O11     .Y        0.65037  -0.00813  -0.00813   0.01394   0.03961
  179 O11     .Z        0.00000   0.01109   0.00000   0.00000   0.00000
  180 O11     .S        1.82934   0.04935   0.04935  -0.84788  -4.45877
  181 O11     .X       -0.00000  -0.00000   0.04454  -0.00000   0.00000
  182 O11     .Y        0.99693   0.01729   0.01729  -0.20896  -0.90895
  183 O11     .Z        0.00000  -0.04454   0.00000   0.00000   0.00000
  184 O11     .XX      -0.24909  -0.00941  -0.00823   0.09393   0.47016
  185 O11     .YY       0.59902  -0.00961  -0.00961   0.08176   0.42588
  186 O11     .ZZ      -0.24909  -0.00823  -0.00941   0.09393   0.47016
  187 O11     .XY      -0.00000  -0.00000   0.01088  -0.00000   0.00000
  188 O11     .XZ      -0.00000  -0.00000  -0.00000   0.00000   0.00000
  189 O11     .YZ      -0.00000  -0.01088  -0.00000  -0.00000  -0.00000
  190 O12     .S       -0.00244  -0.00244  -0.04019  -0.00244   0.16684
  191 O12     .S       -0.01079  -0.01079   0.28488  -0.01079   0.53625
  192 O12     .X        0.00813   0.00813  -0.65037   0.00813  -0.03961
  193 O12     .Y        0.01109   0.00000   0.00000  -0.01109   0.00000
  194 O12     .Z        0.00000   0.01109   0.00000   0.00000   0.00000
  195 O12     .S        0.04935   0.04935   1.82934   0.04935  -4.45877
  196 O12     .X       -0.01729  -0.01729  -0.99693  -0.01729   0.90895
  197 O12     .Y       -0.04454   0.00000   0.00000   0.04454   0.00000
  198 O12     .Z        0.00000  -0.04454   0.00000   0.00000   0.00000
  199 O12     .XX      -0.00961  -0.00961   0.59902  -0.00961   0.42588
  200 O12     .YY      -0.00823  -0.00941  -0.24909  -0.00823   0.47016
  201 O12     .ZZ      -0.00941  -0.00823  -0.24909  -0.00941   0.47016
  202 O12     .XY       0.01088   0.00000  -0.00000  -0.01088  -0.00000
  203 O12     .XZ       0.00000   0.01088  -0.00000   0.00000   0.00000
  204 O12     .YZ       0.00000  -0.00000  -0.00000   0.00000  -0.00000
  205 O13     .S       -0.00244  -0.00244   0.03384  -0.00244   0.16684
  206 O13     .S       -0.01079  -0.01079   0.10247  -0.01079   0.53625
  207 O13     .X       -0.00813  -0.00813   0.01394  -0.00813   0.03961
  208 O13     .Y        0.01109   0.00000   0.00000  -0.01109   0.00000
  209 O13     .Z        0.00000   0.01109   0.00000   0.00000   0.00000
  210 O13     .S        0.04935   0.04935  -0.84788   0.04935  -4.45877
  211 O13     .X        0.01729   0.01729  -0.20896   0.01729  -0.90895
  212 O13     .Y       -0.04454   0.00000   0.00000   0.04454   0.00000
  213 O13     .Z        0.00000  -0.04454   0.00000   0.00000   0.00000
  214 O13     .XX      -0.00961  -0.00961   0.08176  -0.00961   0.42588
  215 O13     .YY      -0.00823  -0.00941   0.09393  -0.00823   0.47016
  216 O13     .ZZ      -0.00941  -0.00823   0.09393  -0.00941   0.47016
  217 O13     .XY      -0.01088   0.00000  -0.00000   0.01088   0.00000
  218 O13     .XZ      -0.00000  -0.01088  -0.00000  -0.00000  -0.00000
  219 O13     .YZ       0.00000  -0.00000   0.00000   0.00000  -0.00000
                         216
                           V    
     Eigenvalues --   378.32331
    1 Cr1     .S        0.20173
    2 Cr1     .S        0.62521
    3 Cr1     .X        0.00000
    4 Cr1     .Y       -0.00000
    5 Cr1     .Z        0.00000
    6 Cr1     .S       14.43228
    7 Cr1     .X        0.00000
    8 Cr1     .Y       -0.00000
    9 Cr1     .Z        0.00000
   10 Cr1     .S      -15.50168
   11 Cr1     .X        0.00000
   12 Cr1     .Y       -0.00000
   13 Cr1     .Z        0.00000
   14 Cr1     .S       -1.48870
   15 Cr1     .X       -0.00000
   16 Cr1     .Y        0.00000
   17 Cr1     .Z       -0.00000
   18 Cr1     .XX       7.84968
   19 Cr1     .YY       7.84968
   20 Cr1     .ZZ       7.84968
   21 Cr1     .XY      -0.00000
   22 Cr1     .XZ       0.00000
   23 Cr1     .YZ      -0.00000
   24 Cr1     .XX      -0.80110
   25 Cr1     .YY      -0.80110
   26 Cr1     .ZZ      -0.80110
   27 Cr1     .XY       0.00000
   28 Cr1     .XZ      -0.00000
   29 Cr1     .YZ       0.00000
   30 Cr1     .XXX      0.00000
   31 Cr1     .YYY      0.00000
   32 Cr1     .ZZZ      0.00000
   33 Cr1     .XYY      0.00000
   34 Cr1     .XXY      0.00000
   35 Cr1     .XXZ      0.00000
   36 Cr1     .XZZ     -0.00000
   37 Cr1     .YZZ      0.00000
   38 Cr1     .YYZ      0.00000
   39 Cr1     .XYZ     -0.00000
   40 C2      .S        0.07441
   41 C2      .S        0.27639
   42 C2      .X       -0.00000
   43 C2      .Y        0.00000
   44 C2      .Z       -0.03335
   45 C2      .S       -3.22525
   46 C2      .X       -0.00000
   47 C2      .Y        0.00000
   48 C2      .Z        1.91829
   49 C2      .XX       0.11773
   50 C2      .YY       0.11773
   51 C2      .ZZ       0.13744
   52 C2      .XY       0.00000
   53 C2      .XZ       0.00000
   54 C2      .YZ       0.00000
   55 C3      .S        0.07441
   56 C3      .S        0.27639
   57 C3      .X       -0.00000
   58 C3      .Y       -0.03335
   59 C3      .Z       -0.00000
   60 C3      .S       -3.22525
   61 C3      .X       -0.00000
   62 C3      .Y        1.91829
   63 C3      .Z       -0.00000
   64 C3      .XX       0.11773
   65 C3      .YY       0.13744
   66 C3      .ZZ       0.11773
   67 C3      .XY       0.00000
   68 C3      .XZ       0.00000
   69 C3      .YZ      -0.00000
   70 C4      .S        0.07441
   71 C4      .S        0.27639
   72 C4      .X       -0.00000
   73 C4      .Y        0.00000
   74 C4      .Z        0.03335
   75 C4      .S       -3.22525
   76 C4      .X       -0.00000
   77 C4      .Y        0.00000
   78 C4      .Z       -1.91829
   79 C4      .XX       0.11773
   80 C4      .YY       0.11773
   81 C4      .ZZ       0.13744
   82 C4      .XY      -0.00000
   83 C4      .XZ      -0.00000
   84 C4      .YZ       0.00000
   85 C5      .S        0.07441
   86 C5      .S        0.27639
   87 C5      .X       -0.00000
   88 C5      .Y        0.03335
   89 C5      .Z       -0.00000
   90 C5      .S       -3.22525
   91 C5      .X       -0.00000
   92 C5      .Y       -1.91829
   93 C5      .Z       -0.00000
   94 C5      .XX       0.11773
   95 C5      .YY       0.13744
   96 C5      .ZZ       0.11773
   97 C5      .XY       0.00000
   98 C5      .XZ      -0.00000
   99 C5      .YZ      -0.00000
  100 C6      .S        0.07441
  101 C6      .S        0.27639
  102 C6      .X       -0.03335
  103 C6      .Y        0.00000
  104 C6      .Z       -0.00000
  105 C6      .S       -3.22525
  106 C6      .X        1.91829
  107 C6      .Y        0.00000
  108 C6      .Z       -0.00000
  109 C6      .XX       0.13744
  110 C6      .YY       0.11773
  111 C6      .ZZ       0.11773
  112 C6      .XY       0.00000
  113 C6      .XZ      -0.00000
  114 C6      .YZ      -0.00000
  115 C7      .S        0.07441
  116 C7      .S        0.27639
  117 C7      .X        0.03335
  118 C7      .Y        0.00000
  119 C7      .Z       -0.00000
  120 C7      .S       -3.22525
  121 C7      .X       -1.91829
  122 C7      .Y        0.00000
  123 C7      .Z       -0.00000
  124 C7      .XX       0.13744
  125 C7      .YY       0.11773
  126 C7      .ZZ       0.11773
  127 C7      .XY      -0.00000
  128 C7      .XZ      -0.00000
  129 C7      .YZ      -0.00000
  130 O8      .S        0.00418
  131 O8      .S        0.00229
  132 O8      .X        0.00000
  133 O8      .Y       -0.00000
  134 O8      .Z        0.02864
  135 O8      .S       -0.39031
  136 O8      .X        0.00000
  137 O8      .Y       -0.00000
  138 O8      .Z       -0.02725
  139 O8      .XX       0.00013
  140 O8      .YY       0.00013
  141 O8      .ZZ       0.01280
  142 O8      .XY      -0.00000
  143 O8      .XZ      -0.00000
  144 O8      .YZ       0.00000
  145 O9      .S        0.00418
  146 O9      .S        0.00229
  147 O9      .X        0.00000
  148 O9      .Y        0.02864
  149 O9      .Z        0.00000
  150 O9      .S       -0.39031
  151 O9      .X        0.00000
  152 O9      .Y       -0.02725
  153 O9      .Z        0.00000
  154 O9      .XX       0.00013
  155 O9      .YY       0.01280
  156 O9      .ZZ       0.00013
  157 O9      .XY      -0.00000
  158 O9      .XZ      -0.00000
  159 O9      .YZ      -0.00000
  160 O10     .S        0.00418
  161 O10     .S        0.00229
  162 O10     .X       -0.00000
  163 O10     .Y       -0.00000
  164 O10     .Z       -0.02864
  165 O10     .S       -0.39031
  166 O10     .X        0.00000
  167 O10     .Y       -0.00000
  168 O10     .Z        0.02725
  169 O10     .XX       0.00013
  170 O10     .YY       0.00013
  171 O10     .ZZ       0.01280
  172 O10     .XY       0.00000
  173 O10     .XZ       0.00000
  174 O10     .YZ       0.00000
  175 O11     .S        0.00418
  176 O11     .S        0.00229
  177 O11     .X        0.00000
  178 O11     .Y       -0.02864
  179 O11     .Z        0.00000
  180 O11     .S       -0.39031
  181 O11     .X        0.00000
  182 O11     .Y        0.02725
  183 O11     .Z        0.00000
  184 O11     .XX       0.00013
  185 O11     .YY       0.01280
  186 O11     .ZZ       0.00013
  187 O11     .XY       0.00000
  188 O11     .XZ       0.00000
  189 O11     .YZ      -0.00000
  190 O12     .S        0.00418
  191 O12     .S        0.00229
  192 O12     .X        0.02864
  193 O12     .Y       -0.00000
  194 O12     .Z        0.00000
  195 O12     .S       -0.39031
  196 O12     .X       -0.02725
  197 O12     .Y       -0.00000
  198 O12     .Z        0.00000
  199 O12     .XX       0.01280
  200 O12     .YY       0.00013
  201 O12     .ZZ       0.00013
  202 O12     .XY       0.00000
  203 O12     .XZ      -0.00000
  204 O12     .YZ       0.00000
  205 O13     .S        0.00418
  206 O13     .S        0.00229
  207 O13     .X       -0.02864
  208 O13     .Y       -0.00000
  209 O13     .Z       -0.00000
  210 O13     .S       -0.39031
  211 O13     .X        0.02725
  212 O13     .Y       -0.00000
  213 O13     .Z        0.00000
  214 O13     .XX       0.01280
  215 O13     .YY       0.00013
  216 O13     .ZZ       0.00013
  217 O13     .XY       0.00000
  218 O13     .XZ      -0.00000
  219 O13     .YZ       0.00000
