 Entering Gaussian System

 Standard orientation:



 -------------------------------------------------------
     1  24    0     0.000000     0.000000     0.000000
     2   6    0     0.000000     0.000000     1.915427
     3   6    0     0.000000     1.915427     0.000000
     4   6    0     0.000000     0.000000    -1.915427
     5   6    0     0.000000    -1.915427     0.000000
     6   6    0     1.915427     0.000000     0.000000
     7   6    0    -1.915427     0.000000     0.000000
     8   8    0     0.000000     0.000000     3.065051
     9   8    0     0.000000     3.065051     0.000000
    10   8    0     0.000000     0.000000    -3.065051
    11   8    0     0.000000    -3.065051     0.000000
    12   8    0     3.065051     0.000000     0.000000
    13   8    0    -3.065051     0.000000     0.000000
 -------------------------------------------------------

 AO basis set (Overlap normalization):
 Atom Cr1     Shell     1 S    6
   5.1789810000e+04   1.7761819560e-03
   7.7768490000e+03   1.3604759660e-02
   1.7713850000e+03   6.7069248320e-02
   4.9915880000e+02   2.3231039420e-01
   1.5979820000e+02   4.8024098800e-01
   5.4470210000e+01   3.4876529130e-01
 Atom Cr1     Shell     2 SP   6
   1.0643280000e+03   2.3996690270e-03   3.9869969690e-03
   2.5321380000e+02   3.1948860350e-02   3.1046619760e-02
   8.1609240000e+01   1.2508680140e-01   1.3505179890e-01
   3.0481930000e+01  -3.2218660360e-02   3.4488649730e-01
   1.2294390000e+01  -6.1722840690e-01   4.6285709640e-01
   5.0377220000e+00  -4.5259360500e-01   2.1104259840e-01
 Atom Cr1     Shell     3 SP   6
   4.1562910000e+01  -3.4542159780e-03  -6.7224970170e-03
   1.3676270000e+01   7.2184279530e-02  -2.8064710070e-02
   5.8443900000e+00   2.5448199840e-01   5.8200280150e-02
   2.4716090000e+00  -2.9345339810e-01   3.9169880100e-01
   1.0283080000e+00  -7.3854549520e-01   5.0478230130e-01
   4.0725000000e-01  -1.9471569870e-01   1.7902900050e-01
 Atom Cr1     Shell     4 SP   3
   1.5714640000e+00   5.8922214600e-02  -1.9301000800e-01
   6.0558000000e-01   2.9760562420e-01   9.6056203980e-02
   9.8561000000e-02  -1.1475064790e+00   9.8176094070e-01
 Atom Cr1     Shell     5 SP   1
   3.6459000000e-02   1.0000000000e+00   1.0000000000e+00
 Atom Cr1     Shell     6 D    3
   1.8419300000e+01   8.6508163350e-02
   4.8126610000e+00   3.8266991480e-01
   1.4464470000e+00   7.0937722740e-01
 Atom Cr1     Shell     7 D    1
   4.0041300000e-01   1.0000000000e+00
 Atom Cr1     Shell     8 F    1
   8.0000000000e-01   1.0000000000e+00
 Atom  C2     Shell     9 S    6
   3.0475248800e+03   1.8347371320e-03
   4.5736951800e+02   1.4037322810e-02
   1.0394868500e+02   6.8842622260e-02
   2.9210155300e+01   2.3218444320e-01
   9.2866629600e+00   4.6794134840e-01
   3.1639269600e+00   3.6231198530e-01
 Atom  C2     Shell    10 SP   3
   7.8682723500e+00  -1.1933241980e-01   6.8999066590e-02
   1.8812885400e+00  -1.6085415170e-01   3.1642396100e-01
   5.4424925800e-01   1.1434564380e+00   7.4430829090e-01
 Atom  C2     Shell    11 SP   1
   1.6871447820e-01   1.0000000000e+00   1.0000000000e+00
 Atom  C2     Shell    12 D    1
   8.0000000000e-01   1.0000000000e+00
 Atom  C3     Shell    13 S    6
   3.0475248800e+03   1.8347371320e-03
   4.5736951800e+02   1.4037322810e-02
   1.0394868500e+02   6.8842622260e-02
   2.9210155300e+01   2.3218444320e-01
   9.2866629600e+00   4.6794134840e-01
   3.1639269600e+00   3.6231198530e-01
 Atom  C3     Shell    14 SP   3
   7.8682723500e+00  -1.1933241980e-01   6.8999066590e-02
   1.8812885400e+00  -1.6085415170e-01   3.1642396100e-01
   5.4424925800e-01   1.1434564380e+00   7.4430829090e-01
 Atom  C3     Shell    15 SP   1
   1.6871447820e-01   1.0000000000e+00   1.0000000000e+00
 Atom  C3     Shell    16 D    1
   8.0000000000e-01   1.0000000000e+00
 Atom  C4     Shell    17 S    6
   3.0475248800e+03   1.8347371320e-03
   4.5736951800e+02   1.4037322810e-02
   1.0394868500e+02   6.8842622260e-02
   2.9210155300e+01   2.3218444320e-01
   9.2866629600e+00   4.6794134840e-01
   3.1639269600e+00   3.6231198530e-01
 Atom  C4     Shell    18 SP   3
   7.8682723500e+00  -1.1933241980e-01   6.8999066590e-02
   1.8812885400e+00  -1.6085415170e-01   3.1642396100e-01
   5.4424925800e-01   1.1434564380e+00   7.4430829090e-01
 Atom  C4     Shell    19 SP   1
   1.6871447820e-01   1.0000000000e+00   1.0000000000e+00
 Atom  C4     Shell    20 D    1
   8.0000000000e-01   1.0000000000e+00
 Atom  C5     Shell    21 S    6
   3.0475248800e+03   1.8347371320e-03
   4.5736951800e+02   1.4037322810e-02
   1.0394868500e+02   6.8842622260e-02
   2.9210155300e+01   2.3218444320e-01
   9.2866629600e+00   4.6794134840e-01
   3.1639269600e+00   3.6231198530e-01
 Atom  C5     Shell    22 SP   3
   7.8682723500e+00  -1.1933241980e-01   6.8999066590e-02
   1.8812885400e+00  -1.6085415170e-01   3.1642396100e-01
   5.4424925800e-01   1.1434564380e+00   7.4430829090e-01
 Atom  C5     Shell    23 SP   1
   1.6871447820e-01   1.0000000000e+00   1.0000000000e+00
 Atom  C5     Shell    24 D    1
   8.0000000000e-01   1.0000000000e+00
 Atom  C6     Shell    25 S    6
   3.0475248800e+03   1.8347371320e-03
   4.5736951800e+02   1.4037322810e-02
   1.0394868500e+02   6.8842622260e-02
   2.9210155300e+01   2.3218444320e-01
   9.2866629600e+00   4.6794134840e-01
   3.1639269600e+00   3.6231198530e-01
 Atom  C6     Shell    26 SP   3
   7.8682723500e+00  -1.1933241980e-01   6.8999066590e-02
   1.8812885400e+00  -1.6085415170e-01   3.1642396100e-01
   5.4424925800e-01   1.1434564380e+00   7.4430829090e-01
 Atom  C6     Shell    27 SP   1
   1.6871447820e-01   1.0000000000e+00   1.0000000000e+00
 Atom  C6     Shell    28 D    1
   8.0000000000e-01   1.0000000000e+00
 Atom  C7     Shell    29 S    6
   3.0475248800e+03   1.8347371320e-03
   4.5736951800e+02   1.4037322810e-02
   1.0394868500e+02   6.8842622260e-02
   2.9210155300e+01   2.3218444320e-01
   9.2866629600e+00   4.6794134840e-01
   3.1639269600e+00   3.6231198530e-01
 Atom  C7     Shell    30 SP   3
   7.8682723500e+00  -1.1933241980e-01   6.8999066590e-02
   1.8812885400e+00  -1.6085415170e-01   3.1642396100e-01
   5.4424925800e-01   1.1434564380e+00   7.4430829090e-01
 Atom  C7     Shell    31 SP   1
   1.6871447820e-01   1.0000000000e+00   1.0000000000e+00
 Atom  C7     Shell    32 D    1
   8.0000000000e-01   1.0000000000e+00
 Atom  O8     Shell    33 S    6
   5.4846716600e+03   1.8310744300e-03
   8.2523494600e+02   1.3950172200e-02
   1.8804695800e+02   6.8445078100e-02
   5.2964500000e+01   2.3271433600e-01
   1.6897570400e+01   4.7019289800e-01
   5.7996353400e+00   3.5852085300e-01
 Atom  O8     Shell    34 SP   3
   1.5539616250e+01  -1.1077754950e-01   7.0874268230e-02
   3.5999335860e+00  -1.4802626270e-01   3.3975283910e-01
   1.0137617500e+00   1.1307670150e+00   7.2715857730e-01
 Atom  O8     Shell    35 SP   1
   2.7000582260e-01   1.0000000000e+00   1.0000000000e+00
 Atom  O8     Shell    36 D    1
   8.0000000000e-01   1.0000000000e+00
 Atom  O9     Shell    37 S    6
   5.4846716600e+03   1.8310744300e-03
   8.2523494600e+02   1.3950172200e-02
   1.8804695800e+02   6.8445078100e-02
   5.2964500000e+01   2.3271433600e-01
   1.6897570400e+01   4.7019289800e-01
   5.7996353400e+00   3.5852085300e-01
 Atom  O9     Shell    38 SP   3
   1.5539616250e+01  -1.1077754950e-01   7.0874268230e-02
   3.5999335860e+00  -1.4802626270e-01   3.3975283910e-01
   1.0137617500e+00   1.1307670150e+00   7.2715857730e-01
 Atom  O9     Shell    39 SP   1
   2.7000582260e-01   1.0000000000e+00   1.0000000000e+00
 Atom  O9     Shell    40 D    1
   8.0000000000e-01   1.0000000000e+00
 Atom  O10    Shell    41 S    6
   5.4846716600e+03   1.8310744300e-03
   8.2523494600e+02   1.3950172200e-02
   1.8804695800e+02   6.8445078100e-02
   5.2964500000e+01   2.3271433600e-01
   1.6897570400e+01   4.7019289800e-01
   5.7996353400e+00   3.5852085300e-01
 Atom  O10    Shell    42 SP   3
   1.5539616250e+01  -1.1077754950e-01   7.0874268230e-02
   3.5999335860e+00  -1.4802626270e-01   3.3975283910e-01
   1.0137617500e+00   1.1307670150e+00   7.2715857730e-01
 Atom  O10    Shell    43 SP   1
   2.7000582260e-01   1.0000000000e+00   1.0000000000e+00
 Atom  O10    Shell    44 D    1
   8.0000000000e-01   1.0000000000e+00
 Atom  O11    Shell    45 S    6
   5.4846716600e+03   1.8310744300e-03
   8.2523494600e+02   1.3950172200e-02
   1.8804695800e+02   6.8445078100e-02
   5.2964500000e+01   2.3271433600e-01
   1.6897570400e+01   4.7019289800e-01
   5.7996353400e+00   3.5852085300e-01
 Atom  O11    Shell    46 SP   3
   1.5539616250e+01  -1.1077754950e-01   7.0874268230e-02
   3.5999335860e+00  -1.4802626270e-01   3.3975283910e-01
   1.0137617500e+00   1.1307670150e+00   7.2715857730e-01
 Atom  O11    Shell    47 SP   1
   2.7000582260e-01   1.0000000000e+00   1.0000000000e+00
 Atom  O11    Shell    48 D    1
   8.0000000000e-01   1.0000000000e+00
 Atom  O12    Shell    49 S    6
   5.4846716600e+03   1.8310744300e-03
   8.2523494600e+02   1.3950172200e-02
   1.8804695800e+02   6.8445078100e-02
   5.2964500000e+01   2.3271433600e-01
   1.6897570400e+01   4.7019289800e-01
   5.7996353400e+00   3.5852085300e-01
 Atom  O12    Shell    50 SP   3
   1.5539616250e+01  -1.1077754950e-01   7.0874268230e-02
   3.5999335860e+00  -1.4802626270e-01   3.3975283910e-01
   1.0137617500e+00   1.1307670150e+00   7.2715857730e-01
 Atom  O12    Shell    51 SP   1
   2.7000582260e-01   1.0000000000e+00   1.0000000000e+00
 Atom  O12    Shell    52 D    1
   8.0000000000e-01   1.0000000000e+00
 Atom  O13    Shell    53 S    6
   5.4846716600e+03   1.8310744300e-03
   8.2523494600e+02   1.3950172200e-02
   1.8804695800e+02   6.8445078100e-02
   5.2964500000e+01   2.3271433600e-01
   1.6897570400e+01   4.7019289800e-01
   5.7996353400e+00   3.5852085300e-01
 Atom  O13    Shell    54 SP   3
   1.5539616250e+01  -1.1077754950e-01   7.0874268230e-02
   3.5999335860e+00  -1.4802626270e-01   3.3975283910e-01
   1.0137617500e+00   1.1307670150e+00   7.2715857730e-01
 Atom  O13    Shell    55 SP   1
   2.7000582260e-01   1.0000000000e+00   1.0000000000e+00
 Atom  O13    Shell    56 D    1
   8.0000000000e-01   1.0000000000e+00

 Molecular Orbital Coefficients:
                           1         2         3         4         5
                           O         O         O         O         O    
     Eigenvalues --  -5871.6957-674.41746-573.49578-573.49578-573.49578
    1 Cr1     .S        0.99632   0.29925   0.00000   0.00000   0.00000
    2 Cr1     .S       -0.01179   1.03598   0.00000   0.00000   0.00000
    3 Cr1     .X        0.00000   0.00000   0.99572   0.00000   0.00000
    4 Cr1     .Y        0.00000   0.00000   0.00000   0.99572   0.00000
    5 Cr1     .Z        0.00000   0.00000   0.00000   0.00000   0.99572
    6 Cr1     .S        0.02597   0.05450   0.00000   0.00000   0.00000
    7 Cr1     .X        0.00000   0.00000   0.00958   0.00000   0.00000
    8 Cr1     .Y        0.00000   0.00000   0.00000   0.00958   0.00000
    9 Cr1     .Z        0.00000   0.00000   0.00000   0.00000   0.00958
   10 Cr1     .S        0.01017   0.03568   0.00000   0.00000   0.00000
   11 Cr1     .X        0.00000   0.00000  -0.02125   0.00000   0.00000
   12 Cr1     .Y        0.00000   0.00000   0.00000  -0.02125   0.00000
   13 Cr1     .Z        0.00000   0.00000   0.00000   0.00000  -0.02125
   14 Cr1     .S        0.00124   0.00372   0.00000   0.00000   0.00000
   15 Cr1     .X        0.00000   0.00000   0.00123   0.00000   0.00000
   16 Cr1     .Y        0.00000   0.00000   0.00000   0.00123   0.00000
   17 Cr1     .Z        0.00000   0.00000   0.00000   0.00000   0.00123
   18 Cr1     .XX       0.00942   0.01274   0.00000   0.00000   0.00000
   19 Cr1     .YY       0.00942   0.01274   0.00000   0.00000   0.00000
   20 Cr1     .ZZ       0.00942   0.01274   0.00000   0.00000   0.00000
   21 Cr1     .XY       0.00000   0.00000   0.00000   0.00000   0.00000
   22 Cr1     .XZ       0.00000   0.00000   0.00000   0.00000   0.00000
   23 Cr1     .YZ       0.00000   0.00000   0.00000   0.00000   0.00000
   24 Cr1     .XX       0.00160   0.00619   0.00000   0.00000   0.00000
   25 Cr1     .YY       0.00160   0.00619   0.00000   0.00000   0.00000
   26 Cr1     .ZZ       0.00160   0.00619   0.00000   0.00000   0.00000
   27 Cr1     .XY       0.00000   0.00000   0.00000   0.00000   0.00000
   28 Cr1     .XZ       0.00000   0.00000   0.00000   0.00000   0.00000
   29 Cr1     .YZ       0.00000   0.00000   0.00000   0.00000   0.00000
   30 Cr1     .XXX      0.00000   0.00000  -0.00008   0.00000   0.00000
   31 Cr1     .YYY      0.00000   0.00000   0.00000   0.00034   0.00000
   32 Cr1     .ZZZ      0.00000   0.00000   0.00000   0.00000  -0.00034
   33 Cr1     .XYY      0.00000   0.00000  -0.00023   0.00000   0.00000
   34 Cr1     .XXY      0.00000   0.00000   0.00000   0.00034   0.00000
   35 Cr1     .XXZ      0.00000   0.00000   0.00000   0.00000  -0.00023
   36 Cr1     .XZZ      0.00000   0.00000   0.00023   0.00000   0.00000
   37 Cr1     .YZZ      0.00000   0.00000   0.00000   0.00023   0.00000
   38 Cr1     .YYZ      0.00000   0.00000   0.00000   0.00000  -0.00023
   39 Cr1     .XYZ      0.00000   0.00000   0.00000   0.00000   0.00000
   40 C2      .S       -0.00005  -0.00018   0.00000   0.00000  -0.00026
   41 C2      .S       -0.00023  -0.00061   0.00000   0.00000  -0.00114
   42 C2      .X        0.00000   0.00000  -0.00014   0.00000   0.00000
   43 C2      .Y        0.00000   0.00000   0.00000  -0.00014   0.00000
   44 C2      .Z        0.00002   0.00013   0.00000   0.00000   0.00015
   45 C2      .S        0.00177   0.00705   0.00000   0.00000   0.01252
   46 C2      .X        0.00000   0.00000   0.00308   0.00000   0.00000
   47 C2      .Y        0.00000   0.00000   0.00000   0.00308   0.00000
   48 C2      .Z       -0.00144  -0.00396   0.00000   0.00000  -0.00346
   49 C2      .XX      -0.00007  -0.00025   0.00000   0.00000  -0.00039
   50 C2      .YY      -0.00007  -0.00025   0.00000   0.00000  -0.00039
   51 C2      .ZZ      -0.00005  -0.00053   0.00000   0.00000  -0.00010
   52 C2      .XY       0.00000   0.00000   0.00000   0.00000   0.00000
   53 C2      .XZ       0.00000   0.00000  -0.00015   0.00000   0.00000
   54 C2      .YZ       0.00000   0.00000   0.00000  -0.00015   0.00000
   55 C3      .S       -0.00005  -0.00018   0.00000  -0.00026   0.00000
   56 C3      .S       -0.00023  -0.00061   0.00000  -0.00114   0.00000
   57 C3      .X        0.00000   0.00000  -0.00014   0.00000   0.00000
   58 C3      .Y        0.00002   0.00013   0.00000   0.00015   0.00000
   59 C3      .Z        0.00000   0.00000   0.00000   0.00000  -0.00014
   60 C3      .S        0.00177   0.00705   0.00000   0.01252   0.00000
   61 C3      .X        0.00000   0.00000   0.00308   0.00000   0.00000
   62 C3      .Y       -0.00144  -0.00396   0.00000  -0.00346   0.00000
   63 C3      .Z        0.00000   0.00000   0.00000   0.00000   0.00308
   64 C3      .XX      -0.00007  -0.00025   0.00000  -0.00039   0.00000
   65 C3      .YY      -0.00005  -0.00053   0.00000  -0.00010   0.00000
   66 C3      .ZZ      -0.00007  -0.00025   0.00000  -0.00039   0.00000
   67 C3      .XY       0.00000   0.00000  -0.00015   0.00000   0.00000
   68 C3      .XZ       0.00000   0.00000   0.00000   0.00000   0.00000
   69 C3      .YZ       0.00000   0.00000   0.00000   0.00000  -0.00015
   70 C4      .S       -0.00005  -0.00018   0.00000   0.00000   0.00026
   71 C4      .S       -0.00023  -0.00061   0.00000   0.00000   0.00114
   72 C4      .X        0.00000   0.00000  -0.00014   0.00000   0.00000
   73 C4      .Y        0.00000   0.00000   0.00000  -0.00014   0.00000
   74 C4      .Z       -0.00002  -0.00013   0.00000   0.00000   0.00015
   75 C4      .S        0.00177   0.00705   0.00000   0.00000  -0.01252
   76 C4      .X        0.00000   0.00000   0.00308   0.00000   0.00000
   77 C4      .Y        0.00000   0.00000   0.00000   0.00308   0.00000
   78 C4      .Z        0.00144   0.00396   0.00000   0.00000  -0.00346
   79 C4      .XX      -0.00007  -0.00025   0.00000   0.00000   0.00039
   80 C4      .YY      -0.00007  -0.00025   0.00000   0.00000   0.00039
   81 C4      .ZZ      -0.00005  -0.00053   0.00000   0.00000   0.00010
   82 C4      .XY       0.00000   0.00000   0.00000   0.00000   0.00000
   83 C4      .XZ       0.00000   0.00000   0.00015   0.00000   0.00000
   84 C4      .YZ       0.00000   0.00000   0.00000   0.00015   0.00000
   85 C5      .S       -0.00005  -0.00018   0.00000   0.00026   0.00000
   86 C5      .S       -0.00023  -0.00061   0.00000   0.00114   0.00000
   87 C5      .X        0.00000   0.00000  -0.00014   0.00000   0.00000
   88 C5      .Y       -0.00002  -0.00013   0.00000   0.00015   0.00000
   89 C5      .Z        0.00000   0.00000   0.00000   0.00000  -0.00014
   90 C5      .S        0.00177   0.00705   0.00000  -0.01252   0.00000
   91 C5      .X        0.00000   0.00000   0.00308   0.00000   0.00000
   92 C5      .Y        0.00144   0.00396   0.00000  -0.00346   0.00000
   93 C5      .Z        0.00000   0.00000   0.00000   0.00000   0.00308
   94 C5      .XX      -0.00007  -0.00025   0.00000   0.00039   0.00000
   95 C5      .YY      -0.00005  -0.00053   0.00000   0.00010   0.00000
   96 C5      .ZZ      -0.00007  -0.00025   0.00000   0.00039   0.00000
   97 C5      .XY       0.00000   0.00000   0.00015   0.00000   0.00000
   98 C5      .XZ       0.00000   0.00000   0.00000   0.00000   0.00000
   99 C5      .YZ       0.00000   0.00000   0.00000   0.00000   0.00015
  100 C6      .S       -0.00005  -0.00018  -0.00026   0.00000   0.00000
  101 C6      .S       -0.00023  -0.00061  -0.00114   0.00000   0.00000
  102 C6      .X        0.00002   0.00013   0.00015   0.00000   0.00000
  103 C6      .Y        0.00000   0.00000   0.00000  -0.00014   0.00000
  104 C6      .Z        0.00000   0.00000   0.00000   0.00000  -0.00014
  105 C6      .S        0.00177   0.00705   0.01252   0.00000   0.00000
  106 C6      .X       -0.00144  -0.00396  -0.00346   0.00000   0.00000
  107 C6      .Y        0.00000   0.00000   0.00000   0.00308   0.00000
  108 C6      .Z        0.00000   0.00000   0.00000   0.00000   0.00308
  109 C6      .XX      -0.00005  -0.00053  -0.00010   0.00000   0.00000
  110 C6      .YY      -0.00007  -0.00025  -0.00039   0.00000   0.00000
  111 C6      .ZZ      -0.00007  -0.00025  -0.00039   0.00000   0.00000
  112 C6      .XY       0.00000   0.00000   0.00000  -0.00015   0.00000
  113 C6      .XZ       0.00000   0.00000   0.00000   0.00000  -0.00015
  114 C6      .YZ       0.00000   0.00000   0.00000   0.00000   0.00000
  115 C7      .S       -0.00005  -0.00018   0.00026   0.00000   0.00000
  116 C7      .S       -0.00023  -0.00061   0.00114   0.00000   0.00000
  117 C7      .X       -0.00002  -0.00013   0.00015   0.00000   0.00000
  118 C7      .Y        0.00000   0.00000   0.00000  -0.00014   0.00000
  119 C7      .Z        0.00000   0.00000   0.00000   0.00000  -0.00014
  120 C7      .S        0.00177   0.00705  -0.01252   0.00000   0.00000
  121 C7      .X        0.00144   0.00396  -0.00346   0.00000   0.00000
  122 C7      .Y        0.00000   0.00000   0.00000   0.00308   0.00000
  123 C7      .Z        0.00000   0.00000   0.00000   0.00000   0.00308
  124 C7      .XX      -0.00005  -0.00053   0.00010   0.00000   0.00000
  125 C7      .YY      -0.00007  -0.00025   0.00039   0.00000   0.00000
  126 C7      .ZZ      -0.00007  -0.00025   0.00039   0.00000   0.00000
  127 C7      .XY       0.00000   0.00000   0.00000   0.00015   0.00000
  128 C7      .XZ       0.00000   0.00000   0.00000   0.00000   0.00015
  129 C7      .YZ       0.00000   0.00000   0.00000   0.00000   0.00000
  130 O8      .S       -0.00002   0.00000   0.00000   0.00000   0.00006
  131 O8      .S       -0.00008   0.00003   0.00000   0.00000   0.00028
  132 O8      .X        0.00000   0.00000   0.00014   0.00000   0.00000
  133 O8      .Y        0.00000   0.00000   0.00000   0.00014   0.00000
  134 O8      .Z        0.00000  -0.00010   0.00000   0.00000  -0.00003
  135 O8      .S        0.00067   0.00067   0.00000   0.00000  -0.00162
  136 O8      .X        0.00000   0.00000  -0.00093   0.00000   0.00000
  137 O8      .Y        0.00000   0.00000   0.00000  -0.00093   0.00000
  138 O8      .Z       -0.00012  -0.00003   0.00000   0.00000   0.00085
  139 O8      .XX      -0.00005   0.00001   0.00000   0.00000   0.00022
  140 O8      .YY      -0.00005   0.00001   0.00000   0.00000   0.00022
  141 O8      .ZZ      -0.00004   0.00009   0.00000   0.00000   0.00006
  142 O8      .XY       0.00000   0.00000   0.00000   0.00000   0.00000
  143 O8      .XZ       0.00000   0.00000   0.00014   0.00000   0.00000
  144 O8      .YZ       0.00000   0.00000   0.00000   0.00014   0.00000
  145 O9      .S       -0.00002   0.00000   0.00000   0.00006   0.00000
  146 O9      .S       -0.00008   0.00003   0.00000   0.00028   0.00000
  147 O9      .X        0.00000   0.00000   0.00014   0.00000   0.00000
  148 O9      .Y        0.00000  -0.00010   0.00000  -0.00003   0.00000
  149 O9      .Z        0.00000   0.00000   0.00000   0.00000   0.00014
  150 O9      .S        0.00067   0.00067   0.00000  -0.00162   0.00000
  151 O9      .X        0.00000   0.00000  -0.00093   0.00000   0.00000
  152 O9      .Y       -0.00012  -0.00003   0.00000   0.00085   0.00000
  153 O9      .Z        0.00000   0.00000   0.00000   0.00000  -0.00093
  154 O9      .XX      -0.00005   0.00001   0.00000   0.00022   0.00000
  155 O9      .YY      -0.00004   0.00009   0.00000   0.00006   0.00000
  156 O9      .ZZ      -0.00005   0.00001   0.00000   0.00022   0.00000
  157 O9      .XY       0.00000   0.00000   0.00014   0.00000   0.00000
  158 O9      .XZ       0.00000   0.00000   0.00000   0.00000   0.00000
  159 O9      .YZ       0.00000   0.00000   0.00000   0.00000   0.00014
  160 O10     .S       -0.00002   0.00000   0.00000   0.00000  -0.00006
  161 O10     .S       -0.00008   0.00003   0.00000   0.00000  -0.00028
  162 O10     .X        0.00000   0.00000   0.00014   0.00000   0.00000
  163 O10     .Y        0.00000   0.00000   0.00000   0.00014   0.00000
  164 O10     .Z       -0.00000   0.00010   0.00000   0.00000  -0.00003
  165 O10     .S        0.00067   0.00067   0.00000   0.00000   0.00162
  166 O10     .X        0.00000   0.00000  -0.00093   0.00000   0.00000
  167 O10     .Y        0.00000   0.00000   0.00000  -0.00093   0.00000
  168 O10     .Z        0.00012   0.00003   0.00000   0.00000   0.00085
  169 O10     .XX      -0.00005   0.00001   0.00000   0.00000  -0.00022
  170 O10     .YY      -0.00005   0.00001   0.00000   0.00000  -0.00022
  171 O10     .ZZ      -0.00004   0.00009   0.00000   0.00000  -0.00006
  172 O10     .XY       0.00000   0.00000   0.00000   0.00000   0.00000
  173 O10     .XZ       0.00000   0.00000  -0.00014   0.00000   0.00000
  174 O10     .YZ       0.00000   0.00000   0.00000  -0.00014   0.00000
  175 O11     .S       -0.00002   0.00000   0.00000  -0.00006   0.00000
  176 O11     .S       -0.00008   0.00003   0.00000  -0.00028   0.00000
  177 O11     .X        0.00000   0.00000   0.00014   0.00000   0.00000
  178 O11     .Y       -0.00000   0.00010   0.00000  -0.00003   0.00000
  179 O11     .Z        0.00000   0.00000   0.00000   0.00000   0.00014
  180 O11     .S        0.00067   0.00067   0.00000   0.00162   0.00000
  181 O11     .X        0.00000   0.00000  -0.00093   0.00000   0.00000
  182 O11     .Y        0.00012   0.00003   0.00000   0.00085   0.00000
  183 O11     .Z        0.00000   0.00000   0.00000   0.00000  -0.00093
  184 O11     .XX      -0.00005   0.00001   0.00000  -0.00022   0.00000
  185 O11     .YY      -0.00004   0.00009   0.00000  -0.00006   0.00000
  186 O11     .ZZ      -0.00005   0.00001   0.00000  -0.00022   0.00000
  187 O11     .XY       0.00000   0.00000  -0.00014   0.00000   0.00000
  188 O11     .XZ       0.00000   0.00000   0.00000   0.00000   0.00000
  189 O11     .YZ       0.00000   0.00000   0.00000   0.00000  -0.00014
  190 O12     .S       -0.00002   0.00000   0.00006   0.00000   0.00000
  191 O12     .S       -0.00008   0.00003   0.00028   0.00000   0.00000
  192 O12     .X        0.00000  -0.00010  -0.00003   0.00000   0.00000
  193 O12     .Y        0.00000   0.00000   0.00000   0.00014   0.00000
  194 O12     .Z        0.00000   0.00000   0.00000   0.00000   0.00014
  195 O12     .S        0.00067   0.00067  -0.00162   0.00000   0.00000
  196 O12     .X       -0.00012  -0.00003   0.00085   0.00000   0.00000
  197 O12     .Y        0.00000   0.00000   0.00000  -0.00093   0.00000
  198 O12     .Z        0.00000   0.00000   0.00000   0.00000  -0.00093
  199 O12     .XX      -0.00004   0.00009   0.00006   0.00000   0.00000
  200 O12     .YY      -0.00005   0.00001   0.00022   0.00000   0.00000
  201 O12     .ZZ      -0.00005   0.00001   0.00022   0.00000   0.00000
  202 O12     .XY       0.00000   0.00000   0.00000   0.00014   0.00000
  203 O12     .XZ       0.00000   0.00000   0.00000   0.00000   0.00014
  204 O12     .YZ       0.00000   0.00000   0.00000   0.00000   0.00000
  205 O13     .S       -0.00002   0.00000  -0.00006   0.00000   0.00000
  206 O13     .S       -0.00008   0.00003  -0.00028   0.00000   0.00000
  207 O13     .X       -0.00000   0.00010  -0.00003   0.00000   0.00000
  208 O13     .Y        0.00000   0.00000   0.00000   0.00014   0.00000
  209 O13     .Z        0.00000   0.00000   0.00000   0.00000   0.00014
  210 O13     .S        0.00067   0.00067   0.00162   0.00000   0.00000
  211 O13     .X        0.00012   0.00003   0.00085   0.00000   0.00000
  212 O13     .Y        0.00000   0.00000   0.00000  -0.00093   0.00000
  213 O13     .Z        0.00000   0.00000   0.00000   0.00000  -0.00093
  214 O13     .XX      -0.00004   0.00009  -0.00006   0.00000   0.00000
  215 O13     .YY      -0.00005   0.00001  -0.00022   0.00000   0.00000
  216 O13     .ZZ      -0.00005   0.00001  -0.00022   0.00000   0.00000
  217 O13     .XY       0.00000   0.00000   0.00000  -0.00014   0.00000
  218 O13     .XZ       0.00000   0.00000   0.00000   0.00000  -0.00014
  219 O13     .YZ       0.00000   0.00000   0.00000   0.00000   0.00000
                           6         7         8         9        10
                           O         O         O         O         O    
     Eigenvalues --  -523.89185-523.89185-523.89178-523.89178-523.89178
    1 Cr1     .S       -0.00000   0.00000   0.00000   0.00000   0.00000
    2 Cr1     .S        0.00000  -0.00000   0.00000   0.00000   0.00000
    3 Cr1     .X        0.00000   0.00000   0.00002   0.00000   0.00000
    4 Cr1     .Y        0.00000   0.00000   0.00000   0.00000   0.00002
    5 Cr1     .Z        0.00000   0.00000   0.00000   0.00002   0.00000
    6 Cr1     .S       -0.00000   0.00000   0.00000   0.00000   0.00000
    7 Cr1     .X        0.00000   0.00000  -0.00039   0.00000   0.00000
    8 Cr1     .Y        0.00000   0.00000   0.00000   0.00000  -0.00039
    9 Cr1     .Z        0.00000   0.00000   0.00000  -0.00039   0.00000
   10 Cr1     .S        0.00000  -0.00000   0.00000   0.00000   0.00000
   11 Cr1     .X        0.00000   0.00000  -0.00170   0.00000   0.00000
   12 Cr1     .Y        0.00000   0.00000   0.00000   0.00000  -0.00170
   13 Cr1     .Z        0.00000   0.00000   0.00000  -0.00170   0.00000
   14 Cr1     .S        0.00000  -0.00000   0.00000   0.00000   0.00000
   15 Cr1     .X        0.00000   0.00000  -0.00002   0.00000   0.00000
   16 Cr1     .Y        0.00000   0.00000   0.00000   0.00000  -0.00002
   17 Cr1     .Z        0.00000   0.00000   0.00000  -0.00002   0.00000
   18 Cr1     .XX      -0.00008   0.00000   0.00000   0.00000   0.00000
   19 Cr1     .YY       0.00004  -0.00007   0.00000   0.00000   0.00000
   20 Cr1     .ZZ       0.00004   0.00007   0.00000   0.00000   0.00000
   21 Cr1     .XY       0.00000   0.00000   0.00000   0.00000   0.00000
   22 Cr1     .XZ       0.00000   0.00000   0.00000   0.00000   0.00000
   23 Cr1     .YZ       0.00000   0.00000   0.00000   0.00000   0.00000
   24 Cr1     .XX       0.00003  -0.00000   0.00000   0.00000   0.00000
   25 Cr1     .YY      -0.00001   0.00002   0.00000   0.00000   0.00000
   26 Cr1     .ZZ      -0.00001  -0.00002   0.00000   0.00000   0.00000
   27 Cr1     .XY       0.00000   0.00000   0.00000   0.00000   0.00000
   28 Cr1     .XZ       0.00000   0.00000   0.00000   0.00000   0.00000
   29 Cr1     .YZ       0.00000   0.00000   0.00000   0.00000   0.00000
   30 Cr1     .XXX      0.00000   0.00000   0.00005   0.00000   0.00000
   31 Cr1     .YYY      0.00000   0.00000   0.00000   0.00000  -0.00019
   32 Cr1     .ZZZ      0.00000   0.00000   0.00000   0.00019   0.00000
   33 Cr1     .XYY      0.00000   0.00000   0.00013   0.00000   0.00000
   34 Cr1     .XXY      0.00000   0.00000   0.00000   0.00000  -0.00019
   35 Cr1     .XXZ      0.00000   0.00000   0.00000   0.00013   0.00000
   36 Cr1     .XZZ      0.00000   0.00000  -0.00013   0.00000   0.00000
   37 Cr1     .YZZ      0.00000   0.00000   0.00000   0.00000  -0.00013
   38 Cr1     .YYZ      0.00000   0.00000   0.00000   0.00013   0.00000
   39 Cr1     .XYZ      0.00000   0.00000   0.00000   0.00000   0.00000
   40 C2      .S        0.00002   0.00004   0.00000  -0.00003   0.00000
   41 C2      .S        0.00001   0.00002   0.00000   0.00008   0.00000
   42 C2      .X        0.00000   0.00000  -0.00007   0.00000   0.00000
   43 C2      .Y        0.00000   0.00000   0.00000   0.00000  -0.00007
   44 C2      .Z        0.00010   0.00018   0.00000  -0.00025   0.00000
   45 C2      .S        0.00135   0.00233   0.00000  -0.00195   0.00000
   46 C2      .X        0.00000   0.00000   0.00026   0.00000   0.00000
   47 C2      .Y        0.00000   0.00000   0.00000   0.00000   0.00026
   48 C2      .Z        0.00160   0.00276   0.00000  -0.00281   0.00000
   49 C2      .XX      -0.00000   0.00007   0.00000  -0.00006   0.00000
   50 C2      .YY       0.00006   0.00003   0.00000  -0.00006   0.00000
   51 C2      .ZZ       0.00044   0.00075   0.00000  -0.00097   0.00000
   52 C2      .XY       0.00000   0.00000   0.00000   0.00000   0.00000
   53 C2      .XZ       0.00000   0.00000   0.00004   0.00000   0.00000
   54 C2      .YZ       0.00000   0.00000   0.00000   0.00000   0.00004
   55 C3      .S        0.00002  -0.00004   0.00000   0.00000  -0.00003
   56 C3      .S        0.00001  -0.00002   0.00000   0.00000   0.00008
   57 C3      .X        0.00000   0.00000  -0.00007   0.00000   0.00000
   58 C3      .Y        0.00010  -0.00018   0.00000   0.00000  -0.00025
   59 C3      .Z        0.00000   0.00000   0.00000  -0.00007   0.00000
   60 C3      .S        0.00135  -0.00233   0.00000   0.00000  -0.00195
   61 C3      .X        0.00000   0.00000   0.00026   0.00000   0.00000
   62 C3      .Y        0.00159  -0.00276   0.00000   0.00000  -0.00281
   63 C3      .Z        0.00000   0.00000   0.00000   0.00026   0.00000
   64 C3      .XX      -0.00000  -0.00007   0.00000   0.00000  -0.00006
   65 C3      .YY       0.00043  -0.00075   0.00000   0.00000  -0.00097
   66 C3      .ZZ       0.00006  -0.00003   0.00000   0.00000  -0.00006
   67 C3      .XY       0.00000   0.00000   0.00004   0.00000   0.00000
   68 C3      .XZ       0.00000   0.00000   0.00000   0.00000   0.00000
   69 C3      .YZ       0.00000   0.00000   0.00000   0.00004   0.00000
   70 C4      .S        0.00002   0.00004   0.00000   0.00003   0.00000
   71 C4      .S        0.00001   0.00002   0.00000  -0.00008   0.00000
   72 C4      .X        0.00000   0.00000  -0.00007   0.00000   0.00000
   73 C4      .Y        0.00000   0.00000   0.00000   0.00000  -0.00007
   74 C4      .Z       -0.00010  -0.00018   0.00000  -0.00025   0.00000
   75 C4      .S        0.00135   0.00233   0.00000   0.00195   0.00000
   76 C4      .X        0.00000   0.00000   0.00026   0.00000   0.00000
   77 C4      .Y        0.00000   0.00000   0.00000   0.00000   0.00026
   78 C4      .Z       -0.00160  -0.00276   0.00000  -0.00281   0.00000
   79 C4      .XX      -0.00000   0.00007   0.00000   0.00006   0.00000
   80 C4      .YY       0.00006   0.00003   0.00000   0.00006   0.00000
   81 C4      .ZZ       0.00044   0.00075   0.00000   0.00097   0.00000
   82 C4      .XY       0.00000   0.00000   0.00000   0.00000   0.00000
   83 C4      .XZ       0.00000   0.00000  -0.00004   0.00000   0.00000
   84 C4      .YZ       0.00000   0.00000   0.00000   0.00000  -0.00004
   85 C5      .S        0.00002  -0.00004   0.00000   0.00000   0.00003
   86 C5      .S        0.00001  -0.00002   0.00000   0.00000  -0.00008
   87 C5      .X        0.00000   0.00000  -0.00007   0.00000   0.00000
   88 C5      .Y       -0.00010   0.00018   0.00000   0.00000  -0.00025
   89 C5      .Z        0.00000   0.00000   0.00000  -0.00007   0.00000
   90 C5      .S        0.00135  -0.00233   0.00000   0.00000   0.00195
   91 C5      .X        0.00000   0.00000   0.00026   0.00000   0.00000
   92 C5      .Y       -0.00159   0.00276   0.00000   0.00000  -0.00281
   93 C5      .Z        0.00000   0.00000   0.00000   0.00026   0.00000
   94 C5      .XX      -0.00000  -0.00007   0.00000   0.00000   0.00006
   95 C5      .YY       0.00043  -0.00075   0.00000   0.00000   0.00097
   96 C5      .ZZ       0.00006  -0.00003   0.00000   0.00000   0.00006
   97 C5      .XY       0.00000   0.00000  -0.00004   0.00000   0.00000
   98 C5      .XZ       0.00000   0.00000   0.00000   0.00000   0.00000
   99 C5      .YZ       0.00000   0.00000   0.00000  -0.00004   0.00000
  100 C6      .S       -0.00005   0.00000  -0.00003   0.00000   0.00000
  101 C6      .S       -0.00002   0.00000   0.00008   0.00000   0.00000
  102 C6      .X       -0.00020   0.00000  -0.00025   0.00000   0.00000
  103 C6      .Y        0.00000   0.00000   0.00000   0.00000  -0.00007
  104 C6      .Z        0.00000   0.00000   0.00000  -0.00007   0.00000
  105 C6      .S       -0.00269   0.00000  -0.00195   0.00000   0.00000
  106 C6      .X       -0.00319   0.00000  -0.00281   0.00000   0.00000
  107 C6      .Y        0.00000   0.00000   0.00000   0.00000   0.00026
  108 C6      .Z        0.00000   0.00000   0.00000   0.00026   0.00000
  109 C6      .XX      -0.00087   0.00000  -0.00097   0.00000   0.00000
  110 C6      .YY      -0.00006  -0.00004  -0.00006   0.00000   0.00000
  111 C6      .ZZ      -0.00006   0.00004  -0.00006   0.00000   0.00000
  112 C6      .XY       0.00000   0.00000   0.00000   0.00000   0.00004
  113 C6      .XZ       0.00000   0.00000   0.00000   0.00004   0.00000
  114 C6      .YZ       0.00000   0.00000   0.00000   0.00000   0.00000
  115 C7      .S       -0.00005   0.00000   0.00003   0.00000   0.00000
  116 C7      .S       -0.00002   0.00000  -0.00008   0.00000   0.00000
  117 C7      .X        0.00020  -0.00000  -0.00025   0.00000   0.00000
  118 C7      .Y        0.00000   0.00000   0.00000   0.00000  -0.00007
  119 C7      .Z        0.00000   0.00000   0.00000  -0.00007   0.00000
  120 C7      .S       -0.00269   0.00000   0.00195   0.00000   0.00000
  121 C7      .X        0.00319  -0.00000  -0.00281   0.00000   0.00000
  122 C7      .Y        0.00000   0.00000   0.00000   0.00000   0.00026
  123 C7      .Z        0.00000   0.00000   0.00000   0.00026   0.00000
  124 C7      .XX      -0.00087   0.00000   0.00097   0.00000   0.00000
  125 C7      .YY      -0.00006  -0.00004   0.00006   0.00000   0.00000
  126 C7      .ZZ      -0.00006   0.00004   0.00006   0.00000   0.00000
  127 C7      .XY       0.00000   0.00000   0.00000   0.00000  -0.00004
  128 C7      .XZ       0.00000   0.00000   0.00000  -0.00004   0.00000
  129 C7      .YZ       0.00000   0.00000   0.00000   0.00000   0.00000
  130 O8      .S       -0.28686  -0.49611   0.00000   0.70194   0.00000
  131 O8      .S       -0.00728  -0.01259   0.00000   0.01811   0.00000
  132 O8      .X        0.00000   0.00000   0.00000   0.00000   0.00000
  133 O8      .Y        0.00000   0.00000   0.00000   0.00000   0.00000
  134 O8      .Z        0.00040   0.00069   0.00000  -0.00098   0.00000
  135 O8      .S       -0.00529  -0.00914   0.00000   0.01100   0.00000
  136 O8      .X        0.00000   0.00000  -0.00007   0.00000   0.00000
  137 O8      .Y        0.00000   0.00000   0.00000   0.00000  -0.00007
  138 O8      .Z        0.00085   0.00147   0.00000  -0.00153   0.00000
  139 O8      .XX       0.00251   0.00433   0.00000  -0.00592   0.00000
  140 O8      .YY       0.00250   0.00433   0.00000  -0.00592   0.00000
  141 O8      .ZZ       0.00220   0.00380   0.00000  -0.00526   0.00000
  142 O8      .XY       0.00000   0.00000   0.00000   0.00000   0.00000
  143 O8      .XZ       0.00000   0.00000   0.00002   0.00000   0.00000
  144 O8      .YZ       0.00000   0.00000   0.00000   0.00000   0.00002
  145 O9      .S       -0.28621   0.49649   0.00000   0.00000   0.70194
  146 O9      .S       -0.00727   0.01260   0.00000   0.00000   0.01811
  147 O9      .X        0.00000   0.00000   0.00000   0.00000   0.00000
  148 O9      .Y        0.00040  -0.00069   0.00000   0.00000  -0.00098
  149 O9      .Z        0.00000   0.00000   0.00000   0.00000   0.00000
  150 O9      .S       -0.00527   0.00915   0.00000   0.00000   0.01100
  151 O9      .X        0.00000   0.00000  -0.00007   0.00000   0.00000
  152 O9      .Y        0.00085  -0.00147   0.00000   0.00000  -0.00153
  153 O9      .Z        0.00000   0.00000   0.00000  -0.00007   0.00000
  154 O9      .XX       0.00250  -0.00433   0.00000   0.00000  -0.00592
  155 O9      .YY       0.00219  -0.00381   0.00000   0.00000  -0.00526
  156 O9      .ZZ       0.00249  -0.00434   0.00000   0.00000  -0.00592
  157 O9      .XY       0.00000   0.00000   0.00002   0.00000   0.00000
  158 O9      .XZ       0.00000   0.00000   0.00000   0.00000   0.00000
  159 O9      .YZ       0.00000   0.00000   0.00000   0.00002   0.00000
  160 O10     .S       -0.28686  -0.49611   0.00000  -0.70194   0.00000
  161 O10     .S       -0.00728  -0.01259   0.00000  -0.01811   0.00000
  162 O10     .X        0.00000   0.00000   0.00000   0.00000   0.00000
  163 O10     .Y        0.00000   0.00000   0.00000   0.00000   0.00000
  164 O10     .Z       -0.00040  -0.00069   0.00000  -0.00098   0.00000
  165 O10     .S       -0.00529  -0.00914   0.00000  -0.01100   0.00000
  166 O10     .X        0.00000   0.00000  -0.00007   0.00000   0.00000
  167 O10     .Y        0.00000   0.00000   0.00000   0.00000  -0.00007
  168 O10     .Z       -0.00085  -0.00147   0.00000  -0.00153   0.00000
  169 O10     .XX       0.00251   0.00433   0.00000   0.00592   0.00000
  170 O10     .YY       0.00250   0.00433   0.00000   0.00592   0.00000
  171 O10     .ZZ       0.00220   0.00380   0.00000   0.00526   0.00000
  172 O10     .XY       0.00000   0.00000   0.00000   0.00000   0.00000
  173 O10     .XZ       0.00000   0.00000  -0.00002   0.00000   0.00000
  174 O10     .YZ       0.00000   0.00000   0.00000   0.00000  -0.00002
  175 O11     .S       -0.28621   0.49649   0.00000   0.00000  -0.70194
  176 O11     .S       -0.00727   0.01260   0.00000   0.00000  -0.01811
  177 O11     .X        0.00000   0.00000   0.00000   0.00000   0.00000
  178 O11     .Y       -0.00040   0.00069   0.00000   0.00000  -0.00098
  179 O11     .Z        0.00000   0.00000   0.00000   0.00000   0.00000
  180 O11     .S       -0.00527   0.00915   0.00000   0.00000  -0.01100
  181 O11     .X        0.00000   0.00000  -0.00007   0.00000   0.00000
  182 O11     .Y       -0.00085   0.00147   0.00000   0.00000  -0.00153
  183 O11     .Z        0.00000   0.00000   0.00000  -0.00007   0.00000
  184 O11     .XX       0.00250  -0.00433   0.00000   0.00000   0.00592
  185 O11     .YY       0.00219  -0.00381   0.00000   0.00000   0.00526
  186 O11     .ZZ       0.00249  -0.00434   0.00000   0.00000   0.00592
  187 O11     .XY       0.00000   0.00000  -0.00002   0.00000   0.00000
  188 O11     .XZ       0.00000   0.00000   0.00000   0.00000   0.00000
  189 O11     .YZ       0.00000   0.00000   0.00000  -0.00002   0.00000
  190 O12     .S        0.57309  -0.00037   0.70194   0.00000   0.00000
  191 O12     .S        0.01455  -0.00001   0.01811   0.00000   0.00000
  192 O12     .X       -0.00080   0.00000  -0.00098   0.00000   0.00000
  193 O12     .Y        0.00000   0.00000   0.00000   0.00000   0.00000
  194 O12     .Z        0.00000   0.00000   0.00000   0.00000   0.00000
  195 O12     .S        0.01056  -0.00001   0.01100   0.00000   0.00000
  196 O12     .X       -0.00170   0.00000  -0.00153   0.00000   0.00000
  197 O12     .Y        0.00000   0.00000   0.00000   0.00000  -0.00007
  198 O12     .Z        0.00000   0.00000   0.00000  -0.00007   0.00000
  199 O12     .XX      -0.00439   0.00000  -0.00526   0.00000   0.00000
  200 O12     .YY      -0.00500   0.00001  -0.00592   0.00000   0.00000
  201 O12     .ZZ      -0.00500  -0.00000  -0.00592   0.00000   0.00000
  202 O12     .XY       0.00000   0.00000   0.00000   0.00000   0.00002
  203 O12     .XZ       0.00000   0.00000   0.00000   0.00002   0.00000
  204 O12     .YZ       0.00000   0.00000   0.00000   0.00000   0.00000
  205 O13     .S        0.57309  -0.00037  -0.70194   0.00000   0.00000
  206 O13     .S        0.01455  -0.00001  -0.01811   0.00000   0.00000
  207 O13     .X        0.00080  -0.00000  -0.00098   0.00000   0.00000
  208 O13     .Y        0.00000   0.00000   0.00000   0.00000   0.00000
  209 O13     .Z        0.00000   0.00000   0.00000   0.00000   0.00000
  210 O13     .S        0.01056  -0.00001  -0.01100   0.00000   0.00000
  211 O13     .X        0.00170  -0.00000  -0.00153   0.00000   0.00000
  212 O13     .Y        0.00000   0.00000   0.00000   0.00000  -0.00007
  213 O13     .Z        0.00000   0.00000   0.00000  -0.00007   0.00000
  214 O13     .XX      -0.00439   0.00000   0.00526   0.00000   0.00000
  215 O13     .YY      -0.00500   0.00001   0.00592   0.00000   0.00000
  216 O13     .ZZ      -0.00500  -0.00000   0.00592   0.00000   0.00000
  217 O13     .XY       0.00000   0.00000   0.00000   0.00000  -0.00002
  218 O13     .XZ       0.00000   0.00000   0.00000  -0.00002   0.00000
  219 O13     .YZ       0.00000   0.00000   0.00000   0.00000   0.00000
                          11        12        13        14        15
                           O         O         O         O         O    
     Eigenvalues --  -523.89173-280.96794-280.96773-280.96773-280.96773
    1 Cr1     .S       -0.00004   0.00036   0.00000   0.00000   0.00000
    2 Cr1     .S        0.00001  -0.00102   0.00000   0.00000   0.00000
    3 Cr1     .X        0.00000   0.00000   0.00000   0.00000   0.00006
    4 Cr1     .Y        0.00000   0.00000   0.00000   0.00006   0.00000
    5 Cr1     .Z        0.00000   0.00000   0.00006   0.00000   0.00000
    6 Cr1     .S       -0.00070  -0.00112   0.00000   0.00000   0.00000
    7 Cr1     .X        0.00000   0.00000   0.00000   0.00000   0.00190
    8 Cr1     .Y        0.00000   0.00000   0.00000   0.00190   0.00000
    9 Cr1     .Z        0.00000   0.00000   0.00190   0.00000   0.00000
   10 Cr1     .S        0.00291  -0.04936   0.00000   0.00000   0.00000
   11 Cr1     .X        0.00000   0.00000   0.00000   0.00000   0.01199
   12 Cr1     .Y        0.00000   0.00000   0.00000   0.01199   0.00000
   13 Cr1     .Z        0.00000   0.00000   0.01199   0.00000   0.00000
   14 Cr1     .S        0.00016  -0.00329   0.00000   0.00000   0.00000
   15 Cr1     .X        0.00000   0.00000   0.00000   0.00000  -0.00121
   16 Cr1     .Y        0.00000   0.00000   0.00000  -0.00121   0.00000
   17 Cr1     .Z        0.00000   0.00000  -0.00121   0.00000   0.00000
   18 Cr1     .XX      -0.00077   0.00410   0.00000   0.00000   0.00000
   19 Cr1     .YY      -0.00077   0.00410   0.00000   0.00000   0.00000
   20 Cr1     .ZZ      -0.00077   0.00410   0.00000   0.00000   0.00000
   21 Cr1     .XY       0.00000   0.00000   0.00000   0.00000   0.00000
   22 Cr1     .XZ       0.00000   0.00000   0.00000   0.00000   0.00000
   23 Cr1     .YZ       0.00000   0.00000   0.00000   0.00000   0.00000
   24 Cr1     .XX      -0.00025  -0.00198   0.00000   0.00000   0.00000
   25 Cr1     .YY      -0.00025  -0.00198   0.00000   0.00000   0.00000
   26 Cr1     .ZZ      -0.00025  -0.00198   0.00000   0.00000   0.00000
   27 Cr1     .XY       0.00000   0.00000   0.00000   0.00000   0.00000
   28 Cr1     .XZ       0.00000   0.00000   0.00000   0.00000   0.00000
   29 Cr1     .YZ       0.00000   0.00000   0.00000   0.00000   0.00000
   30 Cr1     .XXX      0.00000   0.00000   0.00000   0.00000  -0.00007
   31 Cr1     .YYY      0.00000   0.00000   0.00000   0.00028   0.00000
   32 Cr1     .ZZZ      0.00000   0.00000  -0.00028   0.00000   0.00000
   33 Cr1     .XYY      0.00000   0.00000   0.00000   0.00000  -0.00019
   34 Cr1     .XXY      0.00000   0.00000   0.00000   0.00028   0.00000
   35 Cr1     .XXZ      0.00000   0.00000  -0.00019   0.00000   0.00000
   36 Cr1     .XZZ      0.00000   0.00000   0.00000   0.00000   0.00019
   37 Cr1     .YZZ      0.00000   0.00000   0.00000   0.00019   0.00000
   38 Cr1     .YYZ      0.00000   0.00000  -0.00019   0.00000   0.00000
   39 Cr1     .XYZ      0.00000   0.00000   0.00000   0.00000   0.00000
   40 C2      .S       -0.00002   0.40554   0.70232   0.00000   0.00000
   41 C2      .S        0.00005   0.02107   0.03576   0.00000   0.00000
   42 C2      .X        0.00000   0.00000   0.00000   0.00000  -0.00003
   43 C2      .Y        0.00000   0.00000   0.00000  -0.00003   0.00000
   44 C2      .Z       -0.00013   0.00116   0.00177   0.00000   0.00000
   45 C2      .S       -0.00090  -0.01079  -0.00811   0.00000   0.00000
   46 C2      .X        0.00000   0.00000   0.00000   0.00000  -0.00050
   47 C2      .Y        0.00000   0.00000   0.00000  -0.00050   0.00000
   48 C2      .Z       -0.00158   0.00792   0.00736   0.00000   0.00000
   49 C2      .XX      -0.00006  -0.00379  -0.00664   0.00000   0.00000
   50 C2      .YY      -0.00006  -0.00379  -0.00664   0.00000   0.00000
   51 C2      .ZZ      -0.00051  -0.00318  -0.00503   0.00000   0.00000
   52 C2      .XY       0.00000   0.00000   0.00000   0.00000   0.00000
   53 C2      .XZ       0.00000   0.00000   0.00000   0.00000  -0.00004
   54 C2      .YZ       0.00000   0.00000   0.00000  -0.00004   0.00000
   55 C3      .S       -0.00002   0.40554   0.00000   0.70232   0.00000
   56 C3      .S        0.00005   0.02107   0.00000   0.03576   0.00000
   57 C3      .X        0.00000   0.00000   0.00000   0.00000  -0.00003
   58 C3      .Y       -0.00013   0.00116   0.00000   0.00177   0.00000
   59 C3      .Z        0.00000   0.00000  -0.00003   0.00000   0.00000
   60 C3      .S       -0.00090  -0.01079   0.00000  -0.00811   0.00000
   61 C3      .X        0.00000   0.00000   0.00000   0.00000  -0.00050
   62 C3      .Y       -0.00158   0.00792   0.00000   0.00736   0.00000
   63 C3      .Z        0.00000   0.00000  -0.00050   0.00000   0.00000
   64 C3      .XX      -0.00006  -0.00379   0.00000  -0.00664   0.00000
   65 C3      .YY      -0.00051  -0.00318   0.00000  -0.00503   0.00000
   66 C3      .ZZ      -0.00006  -0.00379   0.00000  -0.00664   0.00000
   67 C3      .XY       0.00000   0.00000   0.00000   0.00000  -0.00004
   68 C3      .XZ       0.00000   0.00000   0.00000   0.00000   0.00000
   69 C3      .YZ       0.00000   0.00000  -0.00004   0.00000   0.00000
   70 C4      .S       -0.00002   0.40554  -0.70232   0.00000   0.00000
   71 C4      .S        0.00005   0.02107  -0.03576   0.00000   0.00000
   72 C4      .X        0.00000   0.00000   0.00000   0.00000  -0.00003
   73 C4      .Y        0.00000   0.00000   0.00000  -0.00003   0.00000
   74 C4      .Z        0.00013  -0.00116   0.00177   0.00000   0.00000
   75 C4      .S       -0.00090  -0.01079   0.00811   0.00000   0.00000
   76 C4      .X        0.00000   0.00000   0.00000   0.00000  -0.00050
   77 C4      .Y        0.00000   0.00000   0.00000  -0.00050   0.00000
   78 C4      .Z        0.00158  -0.00792   0.00736   0.00000   0.00000
   79 C4      .XX      -0.00006  -0.00379   0.00664   0.00000   0.00000
   80 C4      .YY      -0.00006  -0.00379   0.00664   0.00000   0.00000
   81 C4      .ZZ      -0.00051  -0.00318   0.00503   0.00000   0.00000
   82 C4      .XY       0.00000   0.00000   0.00000   0.00000   0.00000
   83 C4      .XZ       0.00000   0.00000   0.00000   0.00000   0.00004
   84 C4      .YZ       0.00000   0.00000   0.00000   0.00004   0.00000
   85 C5      .S       -0.00002   0.40554   0.00000  -0.70232   0.00000
   86 C5      .S        0.00005   0.02107   0.00000  -0.03576   0.00000
   87 C5      .X        0.00000   0.00000   0.00000   0.00000  -0.00003
   88 C5      .Y        0.00013  -0.00116   0.00000   0.00177   0.00000
   89 C5      .Z        0.00000   0.00000  -0.00003   0.00000   0.00000
   90 C5      .S       -0.00090  -0.01079   0.00000   0.00811   0.00000
   91 C5      .X        0.00000   0.00000   0.00000   0.00000  -0.00050
   92 C5      .Y        0.00158  -0.00792   0.00000   0.00736   0.00000
   93 C5      .Z        0.00000   0.00000  -0.00050   0.00000   0.00000
   94 C5      .XX      -0.00006  -0.00379   0.00000   0.00664   0.00000
   95 C5      .YY      -0.00051  -0.00318   0.00000   0.00503   0.00000
   96 C5      .ZZ      -0.00006  -0.00379   0.00000   0.00664   0.00000
   97 C5      .XY       0.00000   0.00000   0.00000   0.00000   0.00004
   98 C5      .XZ       0.00000   0.00000   0.00000   0.00000   0.00000
   99 C5      .YZ       0.00000   0.00000   0.00004   0.00000   0.00000
  100 C6      .S       -0.00002   0.40554   0.00000   0.00000   0.70232
  101 C6      .S        0.00005   0.02107   0.00000   0.00000   0.03576
  102 C6      .X       -0.00013   0.00116   0.00000   0.00000   0.00177
  103 C6      .Y        0.00000   0.00000   0.00000  -0.00003   0.00000
  104 C6      .Z        0.00000   0.00000  -0.00003   0.00000   0.00000
  105 C6      .S       -0.00090  -0.01079   0.00000   0.00000  -0.00811
  106 C6      .X       -0.00158   0.00792   0.00000   0.00000   0.00736
  107 C6      .Y        0.00000   0.00000   0.00000  -0.00050   0.00000
  108 C6      .Z        0.00000   0.00000  -0.00050   0.00000   0.00000
  109 C6      .XX      -0.00051  -0.00318   0.00000   0.00000  -0.00503
  110 C6      .YY      -0.00006  -0.00379   0.00000   0.00000  -0.00664
  111 C6      .ZZ      -0.00006  -0.00379   0.00000   0.00000  -0.00664
  112 C6      .XY       0.00000   0.00000   0.00000  -0.00004   0.00000
  113 C6      .XZ       0.00000   0.00000  -0.00004   0.00000   0.00000
  114 C6      .YZ       0.00000   0.00000   0.00000   0.00000   0.00000
  115 C7      .S       -0.00002   0.40554   0.00000   0.00000  -0.70232
  116 C7      .S        0.00005   0.02107   0.00000   0.00000  -0.03576
  117 C7      .X        0.00013  -0.00116   0.00000   0.00000   0.00177
  118 C7      .Y        0.00000   0.00000   0.00000  -0.00003   0.00000
  119 C7      .Z        0.00000   0.00000  -0.00003   0.00000   0.00000
  120 C7      .S       -0.00090  -0.01079   0.00000   0.00000   0.00811
  121 C7      .X        0.00158  -0.00792   0.00000   0.00000   0.00736
  122 C7      .Y        0.00000   0.00000   0.00000  -0.00050   0.00000
  123 C7      .Z        0.00000   0.00000  -0.00050   0.00000   0.00000
  124 C7      .XX      -0.00051  -0.00318   0.00000   0.00000   0.00503
  125 C7      .YY      -0.00006  -0.00379   0.00000   0.00000   0.00664
  126 C7      .ZZ      -0.00006  -0.00379   0.00000   0.00000   0.00664
  127 C7      .XY       0.00000   0.00000   0.00000   0.00004   0.00000
  128 C7      .XZ       0.00000   0.00000   0.00004   0.00000   0.00000
  129 C7      .YZ       0.00000   0.00000   0.00000   0.00000   0.00000
  130 O8      .S        0.40528  -0.00003  -0.00008   0.00000   0.00000
  131 O8      .S        0.01051   0.00063   0.00093   0.00000   0.00000
  132 O8      .X        0.00000   0.00000   0.00000   0.00000   0.00002
  133 O8      .Y        0.00000   0.00000   0.00000   0.00002   0.00000
  134 O8      .Z       -0.00056   0.00008   0.00020   0.00000   0.00000
  135 O8      .S        0.00603  -0.00520  -0.00762   0.00000   0.00000
  136 O8      .X        0.00000   0.00000   0.00000   0.00000   0.00003
  137 O8      .Y        0.00000   0.00000   0.00000   0.00003   0.00000
  138 O8      .Z       -0.00078   0.00169   0.00333   0.00000   0.00000
  139 O8      .XX      -0.00337   0.00041   0.00070   0.00000   0.00000
  140 O8      .YY      -0.00337   0.00041   0.00070   0.00000   0.00000
  141 O8      .ZZ      -0.00303   0.00001  -0.00032   0.00000   0.00000
  142 O8      .XY       0.00000   0.00000   0.00000   0.00000   0.00000
  143 O8      .XZ       0.00000   0.00000   0.00000   0.00000  -0.00000
  144 O8      .YZ       0.00000   0.00000   0.00000  -0.00000   0.00000
  145 O9      .S        0.40528  -0.00003   0.00000  -0.00008   0.00000
  146 O9      .S        0.01051   0.00063   0.00000   0.00093   0.00000
  147 O9      .X        0.00000   0.00000   0.00000   0.00000   0.00002
  148 O9      .Y       -0.00056   0.00008   0.00000   0.00020   0.00000
  149 O9      .Z        0.00000   0.00000   0.00002   0.00000   0.00000
  150 O9      .S        0.00603  -0.00520   0.00000  -0.00762   0.00000
  151 O9      .X        0.00000   0.00000   0.00000   0.00000   0.00003
  152 O9      .Y       -0.00078   0.00169   0.00000   0.00333   0.00000
  153 O9      .Z        0.00000   0.00000   0.00003   0.00000   0.00000
  154 O9      .XX      -0.00337   0.00041   0.00000   0.00070   0.00000
  155 O9      .YY      -0.00303   0.00001   0.00000  -0.00032   0.00000
  156 O9      .ZZ      -0.00337   0.00041   0.00000   0.00070   0.00000
  157 O9      .XY       0.00000   0.00000   0.00000   0.00000  -0.00000
  158 O9      .XZ       0.00000   0.00000   0.00000   0.00000   0.00000
  159 O9      .YZ       0.00000   0.00000  -0.00000   0.00000   0.00000
  160 O10     .S        0.40528  -0.00003   0.00008   0.00000   0.00000
  161 O10     .S        0.01051   0.00063  -0.00093   0.00000   0.00000
  162 O10     .X        0.00000   0.00000   0.00000   0.00000   0.00002
  163 O10     .Y        0.00000   0.00000   0.00000   0.00002   0.00000
  164 O10     .Z        0.00056  -0.00008   0.00020   0.00000   0.00000
  165 O10     .S        0.00603  -0.00520   0.00762   0.00000   0.00000
  166 O10     .X        0.00000   0.00000   0.00000   0.00000   0.00003
  167 O10     .Y        0.00000   0.00000   0.00000   0.00003   0.00000
  168 O10     .Z        0.00078  -0.00169   0.00333   0.00000   0.00000
  169 O10     .XX      -0.00337   0.00041  -0.00070   0.00000   0.00000
  170 O10     .YY      -0.00337   0.00041  -0.00070   0.00000   0.00000
  171 O10     .ZZ      -0.00303   0.00001   0.00032   0.00000   0.00000
  172 O10     .XY       0.00000   0.00000   0.00000   0.00000   0.00000
  173 O10     .XZ       0.00000   0.00000   0.00000   0.00000   0.00000
  174 O10     .YZ       0.00000   0.00000   0.00000   0.00000   0.00000
  175 O11     .S        0.40528  -0.00003   0.00000   0.00008   0.00000
  176 O11     .S        0.01051   0.00063   0.00000  -0.00093   0.00000
  177 O11     .X        0.00000   0.00000   0.00000   0.00000   0.00002
  178 O11     .Y        0.00056  -0.00008   0.00000   0.00020   0.00000
  179 O11     .Z        0.00000   0.00000   0.00002   0.00000   0.00000
  180 O11     .S        0.00603  -0.00520   0.00000   0.00762   0.00000
  181 O11     .X        0.00000   0.00000   0.00000   0.00000   0.00003
  182 O11     .Y        0.00078  -0.00169   0.00000   0.00333   0.00000
  183 O11     .Z        0.00000   0.00000   0.00003   0.00000   0.00000
  184 O11     .XX      -0.00337   0.00041   0.00000  -0.00070   0.00000
  185 O11     .YY      -0.00303   0.00001   0.00000   0.00032   0.00000
  186 O11     .ZZ      -0.00337   0.00041   0.00000  -0.00070   0.00000
  187 O11     .XY       0.00000   0.00000   0.00000   0.00000   0.00000
  188 O11     .XZ       0.00000   0.00000   0.00000   0.00000   0.00000
  189 O11     .YZ       0.00000   0.00000   0.00000   0.00000   0.00000
  190 O12     .S        0.40527  -0.00003   0.00000   0.00000  -0.00008
  191 O12     .S        0.01050   0.00063   0.00000   0.00000   0.00093
  192 O12     .X       -0.00056   0.00008   0.00000   0.00000   0.00020
  193 O12     .Y        0.00000   0.00000   0.00000   0.00002   0.00000
  194 O12     .Z        0.00000   0.00000   0.00002   0.00000   0.00000
  195 O12     .S        0.00603  -0.00520   0.00000   0.00000  -0.00762
  196 O12     .X       -0.00078   0.00169   0.00000   0.00000   0.00333
  197 O12     .Y        0.00000   0.00000   0.00000   0.00003   0.00000
  198 O12     .Z        0.00000   0.00000   0.00003   0.00000   0.00000
  199 O12     .XX      -0.00303   0.00001   0.00000   0.00000  -0.00032
  200 O12     .YY      -0.00337   0.00041   0.00000   0.00000   0.00070
  201 O12     .ZZ      -0.00337   0.00041   0.00000   0.00000   0.00070
  202 O12     .XY       0.00000   0.00000   0.00000  -0.00000   0.00000
  203 O12     .XZ       0.00000   0.00000  -0.00000   0.00000   0.00000
  204 O12     .YZ       0.00000   0.00000   0.00000   0.00000   0.00000
  205 O13     .S        0.40527  -0.00003   0.00000   0.00000   0.00008
  206 O13     .S        0.01050   0.00063   0.00000   0.00000  -0.00093
  207 O13     .X        0.00056  -0.00008   0.00000   0.00000   0.00020
  208 O13     .Y        0.00000   0.00000   0.00000   0.00002   0.00000
  209 O13     .Z        0.00000   0.00000   0.00002   0.00000   0.00000
  210 O13     .S        0.00603  -0.00520   0.00000   0.00000   0.00762
  211 O13     .X        0.00078  -0.00169   0.00000   0.00000   0.00333
  212 O13     .Y        0.00000   0.00000   0.00000   0.00003   0.00000
  213 O13     .Z        0.00000   0.00000   0.00003   0.00000   0.00000
  214 O13     .XX      -0.00303   0.00001   0.00000   0.00000   0.00032
  215 O13     .YY      -0.00337   0.00041   0.00000   0.00000  -0.00070
  216 O13     .ZZ      -0.00337   0.00041   0.00000   0.00000  -0.00070
  217 O13     .XY       0.00000   0.00000   0.00000   0.00000   0.00000
  218 O13     .XZ       0.00000   0.00000   0.00000   0.00000   0.00000
  219 O13     .YZ       0.00000   0.00000   0.00000   0.00000   0.00000
                          16        17        18        19        20
                           O         O         O         O         O    
     Eigenvalues --  -280.96742-280.96742 -79.19583 -50.52286 -50.52286
    1 Cr1     .S        0.00000   0.00000  -0.11080   0.00000   0.00000
    2 Cr1     .S       -0.00000  -0.00000  -0.43712   0.00000   0.00000
    3 Cr1     .X        0.00000   0.00000   0.00000   0.00000   0.00000
    4 Cr1     .Y        0.00000   0.00000   0.00000   0.00000  -0.36215
    5 Cr1     .Z        0.00000   0.00000   0.00000  -0.36215   0.00000
    6 Cr1     .S       -0.00000  -0.00000   1.09517   0.00000   0.00000
    7 Cr1     .X        0.00000   0.00000   0.00000   0.00000   0.00000
    8 Cr1     .Y        0.00000   0.00000   0.00000   0.00000   1.05231
    9 Cr1     .Z        0.00000   0.00000   0.00000   1.05231   0.00000
   10 Cr1     .S       -0.00000  -0.00000   0.07095   0.00000   0.00000
   11 Cr1     .X        0.00000   0.00000   0.00000   0.00000   0.00000
   12 Cr1     .Y        0.00000   0.00000   0.00000   0.00000  -0.02872
   13 Cr1     .Z        0.00000   0.00000   0.00000  -0.02872   0.00000
   14 Cr1     .S       -0.00000  -0.00000   0.01261   0.00000   0.00000
   15 Cr1     .X        0.00000   0.00000   0.00000   0.00000   0.00000
   16 Cr1     .Y        0.00000   0.00000   0.00000   0.00000   0.00079
   17 Cr1     .Z        0.00000   0.00000   0.00000   0.00079   0.00000
   18 Cr1     .XX      -0.00000   0.00012   0.00060   0.00000   0.00000
   19 Cr1     .YY      -0.00011  -0.00006   0.00060   0.00000   0.00000
   20 Cr1     .ZZ       0.00011  -0.00006   0.00060   0.00000   0.00000
   21 Cr1     .XY       0.00000   0.00000   0.00000   0.00000   0.00000
   22 Cr1     .XZ       0.00000   0.00000   0.00000   0.00000   0.00000
   23 Cr1     .YZ       0.00000   0.00000   0.00000   0.00000   0.00000
   24 Cr1     .XX      -0.00000   0.00012   0.00178   0.00000   0.00000
   25 Cr1     .YY      -0.00011  -0.00006   0.00178   0.00000   0.00000
   26 Cr1     .ZZ       0.00011  -0.00006   0.00178   0.00000   0.00000
   27 Cr1     .XY       0.00000   0.00000   0.00000   0.00000   0.00000
   28 Cr1     .XZ       0.00000   0.00000   0.00000   0.00000   0.00000
   29 Cr1     .YZ       0.00000   0.00000   0.00000   0.00000   0.00000
   30 Cr1     .XXX      0.00000   0.00000   0.00000   0.00000   0.00000
   31 Cr1     .YYY      0.00000   0.00000   0.00000   0.00000   0.00078
   32 Cr1     .ZZZ      0.00000   0.00000   0.00000  -0.00078   0.00000
   33 Cr1     .XYY      0.00000   0.00000   0.00000   0.00000   0.00000
   34 Cr1     .XXY      0.00000   0.00000   0.00000   0.00000   0.00078
   35 Cr1     .XXZ      0.00000   0.00000   0.00000  -0.00052   0.00000
   36 Cr1     .XZZ      0.00000   0.00000   0.00000   0.00000   0.00000
   37 Cr1     .YZZ      0.00000   0.00000   0.00000   0.00000   0.00052
   38 Cr1     .YYZ      0.00000   0.00000   0.00000  -0.00052   0.00000
   39 Cr1     .XYZ      0.00000   0.00000   0.00000   0.00000   0.00000
   40 C2      .S        0.49657  -0.28655   0.00080  -0.00625   0.00000
   41 C2      .S        0.02488  -0.01436  -0.00318   0.00803   0.00000
   42 C2      .X        0.00000   0.00000   0.00000   0.00000   0.00000
   43 C2      .Y        0.00000   0.00000   0.00000   0.00000   0.00192
   44 C2      .Z        0.00132  -0.00076   0.00194  -0.01132   0.00000
   45 C2      .S       -0.00137   0.00079   0.00836   0.02290   0.00000
   46 C2      .X        0.00000   0.00000   0.00000   0.00000   0.00000
   47 C2      .Y        0.00000   0.00000   0.00000   0.00000   0.00530
   48 C2      .Z        0.00371  -0.00214  -0.01367  -0.00724   0.00000
   49 C2      .XX      -0.00481   0.00296  -0.00010  -0.00147   0.00000
   50 C2      .YY      -0.00497   0.00268  -0.00010  -0.00147   0.00000
   51 C2      .ZZ      -0.00365   0.00211  -0.00149   0.00511   0.00000
   52 C2      .XY       0.00000   0.00000   0.00000   0.00000   0.00000
   53 C2      .XZ       0.00000   0.00000   0.00000   0.00000   0.00000
   54 C2      .YZ       0.00000   0.00000   0.00000   0.00000  -0.00133
   55 C3      .S       -0.49645  -0.28677   0.00080   0.00000  -0.00625
   56 C3      .S       -0.02487  -0.01437  -0.00318   0.00000   0.00803
   57 C3      .X        0.00000   0.00000   0.00000   0.00000   0.00000
   58 C3      .Y       -0.00132  -0.00076   0.00194   0.00000  -0.01132
   59 C3      .Z        0.00000   0.00000   0.00000   0.00192   0.00000
   60 C3      .S        0.00137   0.00079   0.00836   0.00000   0.02290
   61 C3      .X        0.00000   0.00000   0.00000   0.00000   0.00000
   62 C3      .Y       -0.00371  -0.00214  -0.01367   0.00000  -0.00724
   63 C3      .Z        0.00000   0.00000   0.00000   0.00530   0.00000
   64 C3      .XX       0.00481   0.00296  -0.00010   0.00000  -0.00147
   65 C3      .YY       0.00365   0.00211  -0.00149   0.00000   0.00511
   66 C3      .ZZ       0.00497   0.00268  -0.00010   0.00000  -0.00147
   67 C3      .XY       0.00000   0.00000   0.00000   0.00000   0.00000
   68 C3      .XZ       0.00000   0.00000   0.00000   0.00000   0.00000
   69 C3      .YZ       0.00000   0.00000   0.00000  -0.00133   0.00000
   70 C4      .S        0.49657  -0.28655   0.00080   0.00625   0.00000
   71 C4      .S        0.02488  -0.01436  -0.00318  -0.00803   0.00000
   72 C4      .X        0.00000   0.00000   0.00000   0.00000   0.00000
   73 C4      .Y        0.00000   0.00000   0.00000   0.00000   0.00192
   74 C4      .Z       -0.00132   0.00076  -0.00194  -0.01132   0.00000
   75 C4      .S       -0.00137   0.00079   0.00836  -0.02290   0.00000
   76 C4      .X        0.00000   0.00000   0.00000   0.00000   0.00000
   77 C4      .Y        0.00000   0.00000   0.00000   0.00000   0.00530
   78 C4      .Z       -0.00371   0.00214   0.01367  -0.00724   0.00000
   79 C4      .XX      -0.00481   0.00296  -0.00010   0.00147   0.00000
   80 C4      .YY      -0.00497   0.00268  -0.00010   0.00147   0.00000
   81 C4      .ZZ      -0.00365   0.00211  -0.00149  -0.00511   0.00000
   82 C4      .XY       0.00000   0.00000   0.00000   0.00000   0.00000
   83 C4      .XZ       0.00000   0.00000   0.00000   0.00000   0.00000
   84 C4      .YZ       0.00000   0.00000   0.00000   0.00000   0.00133
   85 C5      .S       -0.49645  -0.28677   0.00080   0.00000   0.00625
   86 C5      .S       -0.02487  -0.01437  -0.00318   0.00000  -0.00803
   87 C5      .X        0.00000   0.00000   0.00000   0.00000   0.00000
   88 C5      .Y        0.00132   0.00076  -0.00194   0.00000  -0.01132
   89 C5      .Z        0.00000   0.00000   0.00000   0.00192   0.00000
   90 C5      .S        0.00137   0.00079   0.00836   0.00000  -0.02290
   91 C5      .X        0.00000   0.00000   0.00000   0.00000   0.00000
   92 C5      .Y        0.00371   0.00214   0.01367   0.00000  -0.00724
   93 C5      .Z        0.00000   0.00000   0.00000   0.00530   0.00000
   94 C5      .XX       0.00481   0.00296  -0.00010   0.00000   0.00147
   95 C5      .YY       0.00365   0.00211  -0.00149   0.00000  -0.00511
   96 C5      .ZZ       0.00497   0.00268  -0.00010   0.00000   0.00147
   97 C5      .XY       0.00000   0.00000   0.00000   0.00000   0.00000
   98 C5      .XZ       0.00000   0.00000   0.00000   0.00000   0.00000
   99 C5      .YZ       0.00000   0.00000   0.00000   0.00133   0.00000
  100 C6      .S       -0.00013   0.57332   0.00080   0.00000   0.00000
  101 C6      .S       -0.00001   0.02872  -0.00318   0.00000   0.00000
  102 C6      .X       -0.00000   0.00153   0.00194   0.00000   0.00000
  103 C6      .Y        0.00000   0.00000   0.00000   0.00000   0.00192
  104 C6      .Z        0.00000   0.00000   0.00000   0.00192   0.00000
  105 C6      .S        0.00000  -0.00159   0.00836   0.00000   0.00000
  106 C6      .X       -0.00000   0.00428  -0.01367   0.00000   0.00000
  107 C6      .Y        0.00000   0.00000   0.00000   0.00000   0.00530
  108 C6      .Z        0.00000   0.00000   0.00000   0.00530   0.00000
  109 C6      .XX       0.00000  -0.00421  -0.00149   0.00000   0.00000
  110 C6      .YY      -0.00016  -0.00565  -0.00010   0.00000   0.00000
  111 C6      .ZZ       0.00016  -0.00565  -0.00010   0.00000   0.00000
  112 C6      .XY       0.00000   0.00000   0.00000   0.00000  -0.00133
  113 C6      .XZ       0.00000   0.00000   0.00000  -0.00133   0.00000
  114 C6      .YZ       0.00000   0.00000   0.00000   0.00000   0.00000
  115 C7      .S       -0.00013   0.57332   0.00080   0.00000   0.00000
  116 C7      .S       -0.00001   0.02872  -0.00318   0.00000   0.00000
  117 C7      .X        0.00000  -0.00153  -0.00194   0.00000   0.00000
  118 C7      .Y        0.00000   0.00000   0.00000   0.00000   0.00192
  119 C7      .Z        0.00000   0.00000   0.00000   0.00192   0.00000
  120 C7      .S        0.00000  -0.00159   0.00836   0.00000   0.00000
  121 C7      .X        0.00000  -0.00428   0.01367   0.00000   0.00000
  122 C7      .Y        0.00000   0.00000   0.00000   0.00000   0.00530
  123 C7      .Z        0.00000   0.00000   0.00000   0.00530   0.00000
  124 C7      .XX       0.00000  -0.00421  -0.00149   0.00000   0.00000
  125 C7      .YY      -0.00016  -0.00565  -0.00010   0.00000   0.00000
  126 C7      .ZZ       0.00016  -0.00565  -0.00010   0.00000   0.00000
  127 C7      .XY       0.00000   0.00000   0.00000   0.00000   0.00133
  128 C7      .XZ       0.00000   0.00000   0.00000   0.00133   0.00000
  129 C7      .YZ       0.00000   0.00000   0.00000   0.00000   0.00000
  130 O8      .S       -0.00004   0.00003  -0.00025  -0.00001   0.00000
  131 O8      .S        0.00070  -0.00040  -0.00106  -0.00026   0.00000
  132 O8      .X        0.00000   0.00000   0.00000   0.00000   0.00000
  133 O8      .Y        0.00000   0.00000   0.00000   0.00000   0.00020
  134 O8      .Z        0.00014  -0.00008  -0.00021   0.00087   0.00000
  135 O8      .S       -0.00560   0.00323   0.00954  -0.00115   0.00000
  136 O8      .X        0.00000   0.00000   0.00000   0.00000   0.00000
  137 O8      .Y        0.00000   0.00000   0.00000   0.00000  -0.00156
  138 O8      .Z        0.00246  -0.00142  -0.00237   0.00176   0.00000
  139 O8      .XX       0.00053  -0.00032  -0.00065   0.00026   0.00000
  140 O8      .YY       0.00054  -0.00030  -0.00065   0.00026   0.00000
  141 O8      .ZZ      -0.00019   0.00011  -0.00020  -0.00114   0.00000
  142 O8      .XY       0.00000   0.00000   0.00000   0.00000   0.00000
  143 O8      .XZ       0.00000   0.00000   0.00000   0.00000   0.00000
  144 O8      .YZ       0.00000   0.00000   0.00000   0.00000  -0.00001
  145 O9      .S        0.00004   0.00003  -0.00025   0.00000  -0.00001
  146 O9      .S       -0.00070  -0.00040  -0.00106   0.00000  -0.00026
  147 O9      .X        0.00000   0.00000   0.00000   0.00000   0.00000
  148 O9      .Y       -0.00014  -0.00008  -0.00021   0.00000   0.00087
  149 O9      .Z        0.00000   0.00000   0.00000   0.00020   0.00000
  150 O9      .S        0.00560   0.00323   0.00954   0.00000  -0.00115
  151 O9      .X        0.00000   0.00000   0.00000   0.00000   0.00000
  152 O9      .Y       -0.00246  -0.00142  -0.00237   0.00000   0.00176
  153 O9      .Z        0.00000   0.00000   0.00000  -0.00156   0.00000
  154 O9      .XX      -0.00053  -0.00032  -0.00065   0.00000   0.00026
  155 O9      .YY       0.00019   0.00011  -0.00020   0.00000  -0.00114
  156 O9      .ZZ      -0.00054  -0.00030  -0.00065   0.00000   0.00026
  157 O9      .XY       0.00000   0.00000   0.00000   0.00000   0.00000
  158 O9      .XZ       0.00000   0.00000   0.00000   0.00000   0.00000
  159 O9      .YZ       0.00000   0.00000   0.00000  -0.00001   0.00000
  160 O10     .S       -0.00004   0.00003  -0.00025   0.00001   0.00000
  161 O10     .S        0.00070  -0.00040  -0.00106   0.00026   0.00000
  162 O10     .X        0.00000   0.00000   0.00000   0.00000   0.00000
  163 O10     .Y        0.00000   0.00000   0.00000   0.00000   0.00020
  164 O10     .Z       -0.00014   0.00008   0.00021   0.00087   0.00000
  165 O10     .S       -0.00560   0.00323   0.00954   0.00115   0.00000
  166 O10     .X        0.00000   0.00000   0.00000   0.00000   0.00000
  167 O10     .Y        0.00000   0.00000   0.00000   0.00000  -0.00156
  168 O10     .Z       -0.00246   0.00142   0.00237   0.00176   0.00000
  169 O10     .XX       0.00053  -0.00032  -0.00065  -0.00026   0.00000
  170 O10     .YY       0.00054  -0.00030  -0.00065  -0.00026   0.00000
  171 O10     .ZZ      -0.00019   0.00011  -0.00020   0.00114   0.00000
  172 O10     .XY       0.00000   0.00000   0.00000   0.00000   0.00000
  173 O10     .XZ       0.00000   0.00000   0.00000   0.00000   0.00000
  174 O10     .YZ       0.00000   0.00000   0.00000   0.00000   0.00001
  175 O11     .S        0.00004   0.00003  -0.00025   0.00000   0.00001
  176 O11     .S       -0.00070  -0.00040  -0.00106   0.00000   0.00026
  177 O11     .X        0.00000   0.00000   0.00000   0.00000   0.00000
  178 O11     .Y        0.00014   0.00008   0.00021   0.00000   0.00087
  179 O11     .Z        0.00000   0.00000   0.00000   0.00020   0.00000
  180 O11     .S        0.00560   0.00323   0.00954   0.00000   0.00115
  181 O11     .X        0.00000   0.00000   0.00000   0.00000   0.00000
  182 O11     .Y        0.00246   0.00142   0.00237   0.00000   0.00176
  183 O11     .Z        0.00000   0.00000   0.00000  -0.00156   0.00000
  184 O11     .XX      -0.00053  -0.00032  -0.00065   0.00000  -0.00026
  185 O11     .YY       0.00019   0.00011  -0.00020   0.00000   0.00114
  186 O11     .ZZ      -0.00054  -0.00030  -0.00065   0.00000  -0.00026
  187 O11     .XY       0.00000   0.00000   0.00000   0.00000   0.00000
  188 O11     .XZ       0.00000   0.00000   0.00000   0.00000   0.00000
  189 O11     .YZ       0.00000   0.00000   0.00000   0.00001   0.00000
  190 O12     .S        0.00000  -0.00005  -0.00025   0.00000   0.00000
  191 O12     .S       -0.00000   0.00080  -0.00106   0.00000   0.00000
  192 O12     .X       -0.00000   0.00016  -0.00021   0.00000   0.00000
  193 O12     .Y        0.00000   0.00000   0.00000   0.00000   0.00020
  194 O12     .Z        0.00000   0.00000   0.00000   0.00020   0.00000
  195 O12     .S        0.00000  -0.00646   0.00954   0.00000   0.00000
  196 O12     .X       -0.00000   0.00285  -0.00237   0.00000   0.00000
  197 O12     .Y        0.00000   0.00000   0.00000   0.00000  -0.00156
  198 O12     .Z        0.00000   0.00000   0.00000  -0.00156   0.00000
  199 O12     .XX       0.00000  -0.00022  -0.00020   0.00000   0.00000
  200 O12     .YY       0.00001   0.00062  -0.00065   0.00000   0.00000
  201 O12     .ZZ      -0.00001   0.00062  -0.00065   0.00000   0.00000
  202 O12     .XY       0.00000   0.00000   0.00000   0.00000  -0.00001
  203 O12     .XZ       0.00000   0.00000   0.00000  -0.00001   0.00000
  204 O12     .YZ       0.00000   0.00000   0.00000   0.00000   0.00000
  205 O13     .S        0.00000  -0.00005  -0.00025   0.00000   0.00000
  206 O13     .S       -0.00000   0.00080  -0.00106   0.00000   0.00000
  207 O13     .X        0.00000  -0.00016   0.00021   0.00000   0.00000
  208 O13     .Y        0.00000   0.00000   0.00000   0.00000   0.00020
  209 O13     .Z        0.00000   0.00000   0.00000   0.00020   0.00000
  210 O13     .S        0.00000  -0.00646   0.00954   0.00000   0.00000
  211 O13     .X        0.00000  -0.00285   0.00237   0.00000   0.00000
  212 O13     .Y        0.00000   0.00000   0.00000   0.00000  -0.00156
  213 O13     .Z        0.00000   0.00000   0.00000  -0.00156   0.00000
  214 O13     .XX       0.00000  -0.00022  -0.00020   0.00000   0.00000
  215 O13     .YY       0.00001   0.00062  -0.00065   0.00000   0.00000
  216 O13     .ZZ      -0.00001   0.00062  -0.00065   0.00000   0.00000
  217 O13     .XY       0.00000   0.00000   0.00000   0.00000   0.00001
  218 O13     .XZ       0.00000   0.00000   0.00000   0.00001   0.00000
  219 O13     .YZ       0.00000   0.00000   0.00000   0.00000   0.00000
                          21        22        23        24        25
                           O         O         O         O         O    
     Eigenvalues --   -50.52286 -31.41031 -31.38234 -31.38234 -31.38234
    1 Cr1     .S        0.00000  -0.00187   0.00000   0.00000   0.00000
    2 Cr1     .S        0.00000  -0.00234   0.00000   0.00000   0.00000
    3 Cr1     .X       -0.36215   0.00000   0.00462   0.00000   0.00000
    4 Cr1     .Y        0.00000   0.00000   0.00000   0.00000   0.00462
    5 Cr1     .Z        0.00000   0.00000   0.00000   0.00462   0.00000
    6 Cr1     .S        0.00000   0.02218   0.00000   0.00000   0.00000
    7 Cr1     .X        1.05231   0.00000  -0.02488   0.00000   0.00000
    8 Cr1     .Y        0.00000   0.00000   0.00000   0.00000  -0.02488
    9 Cr1     .Z        0.00000   0.00000   0.00000  -0.02488   0.00000
   10 Cr1     .S        0.00000   0.04034   0.00000   0.00000   0.00000
   11 Cr1     .X       -0.02872   0.00000  -0.05547   0.00000   0.00000
   12 Cr1     .Y        0.00000   0.00000   0.00000   0.00000  -0.05547
   13 Cr1     .Z        0.00000   0.00000   0.00000  -0.05547   0.00000
   14 Cr1     .S        0.00000   0.02475   0.00000   0.00000   0.00000
   15 Cr1     .X        0.00079   0.00000   0.01711   0.00000   0.00000
   16 Cr1     .Y        0.00000   0.00000   0.00000   0.00000   0.01711
   17 Cr1     .Z        0.00000   0.00000   0.00000   0.01711   0.00000
   18 Cr1     .XX       0.00000  -0.00536   0.00000   0.00000   0.00000
   19 Cr1     .YY       0.00000  -0.00536   0.00000   0.00000   0.00000
   20 Cr1     .ZZ       0.00000  -0.00536   0.00000   0.00000   0.00000
   21 Cr1     .XY       0.00000   0.00000   0.00000   0.00000   0.00000
   22 Cr1     .XZ       0.00000   0.00000   0.00000   0.00000   0.00000
   23 Cr1     .YZ       0.00000   0.00000   0.00000   0.00000   0.00000
   24 Cr1     .XX       0.00000  -0.00914   0.00000   0.00000   0.00000
   25 Cr1     .YY       0.00000  -0.00914   0.00000   0.00000   0.00000
   26 Cr1     .ZZ       0.00000  -0.00914   0.00000   0.00000   0.00000
   27 Cr1     .XY       0.00000   0.00000   0.00000   0.00000   0.00000
   28 Cr1     .XZ       0.00000   0.00000   0.00000   0.00000   0.00000
   29 Cr1     .YZ       0.00000   0.00000   0.00000   0.00000   0.00000
   30 Cr1     .XXX     -0.00019   0.00000   0.00047   0.00000   0.00000
   31 Cr1     .YYY      0.00000   0.00000   0.00000   0.00000  -0.00189
   32 Cr1     .ZZZ      0.00000   0.00000   0.00000   0.00189   0.00000
   33 Cr1     .XYY     -0.00052   0.00000   0.00127   0.00000   0.00000
   34 Cr1     .XXY      0.00000   0.00000   0.00000   0.00000  -0.00190
   35 Cr1     .XXZ      0.00000   0.00000   0.00000   0.00127   0.00000
   36 Cr1     .XZZ      0.00052   0.00000  -0.00127   0.00000   0.00000
   37 Cr1     .YZZ      0.00000   0.00000   0.00000   0.00000  -0.00127
   38 Cr1     .YYZ      0.00000   0.00000   0.00000   0.00127   0.00000
   39 Cr1     .XYZ      0.00000   0.00000   0.00000   0.00000   0.00000
   40 C2      .S        0.00000  -0.04810   0.00000  -0.08360   0.00000
   41 C2      .S        0.00000   0.09254   0.00000   0.15296   0.00000
   42 C2      .X        0.00192   0.00000   0.00091   0.00000   0.00000
   43 C2      .Y        0.00000   0.00000   0.00000   0.00000   0.00091
   44 C2      .Z        0.00000   0.08633   0.00000   0.15343   0.00000
   45 C2      .S        0.00000   0.00992   0.00000   0.05258   0.00000
   46 C2      .X        0.00530   0.00000  -0.00055   0.00000   0.00000
   47 C2      .Y        0.00000   0.00000   0.00000   0.00000  -0.00055
   48 C2      .Z        0.00000  -0.02741   0.00000  -0.05700   0.00000
   49 C2      .XX       0.00000  -0.00918   0.00000  -0.01724   0.00000
   50 C2      .YY       0.00000  -0.00918   0.00000  -0.01724   0.00000
   51 C2      .ZZ       0.00000   0.01136   0.00000   0.01702   0.00000
   52 C2      .XY       0.00000   0.00000   0.00000   0.00000   0.00000
   53 C2      .XZ      -0.00133   0.00000   0.00045   0.00000   0.00000
   54 C2      .YZ       0.00000   0.00000   0.00000   0.00000   0.00045
   55 C3      .S        0.00000  -0.04810   0.00000   0.00000  -0.08360
   56 C3      .S        0.00000   0.09254   0.00000   0.00000   0.15296
   57 C3      .X        0.00192   0.00000   0.00091   0.00000   0.00000
   58 C3      .Y        0.00000   0.08633   0.00000   0.00000   0.15343
   59 C3      .Z        0.00000   0.00000   0.00000   0.00091   0.00000
   60 C3      .S        0.00000   0.00992   0.00000   0.00000   0.05258
   61 C3      .X        0.00530   0.00000  -0.00055   0.00000   0.00000
   62 C3      .Y        0.00000  -0.02741   0.00000   0.00000  -0.05700
   63 C3      .Z        0.00000   0.00000   0.00000  -0.00055   0.00000
   64 C3      .XX       0.00000  -0.00918   0.00000   0.00000  -0.01724
   65 C3      .YY       0.00000   0.01136   0.00000   0.00000   0.01702
   66 C3      .ZZ       0.00000  -0.00918   0.00000   0.00000  -0.01724
   67 C3      .XY      -0.00133   0.00000   0.00045   0.00000   0.00000
   68 C3      .XZ       0.00000   0.00000   0.00000   0.00000   0.00000
   69 C3      .YZ       0.00000   0.00000   0.00000   0.00045   0.00000
   70 C4      .S        0.00000  -0.04810   0.00000   0.08360   0.00000
   71 C4      .S        0.00000   0.09254   0.00000  -0.15296   0.00000
   72 C4      .X        0.00192   0.00000   0.00091   0.00000   0.00000
   73 C4      .Y        0.00000   0.00000   0.00000   0.00000   0.00091
   74 C4      .Z        0.00000  -0.08633   0.00000   0.15343   0.00000
   75 C4      .S        0.00000   0.00992   0.00000  -0.05258   0.00000
   76 C4      .X        0.00530   0.00000  -0.00055   0.00000   0.00000
   77 C4      .Y        0.00000   0.00000   0.00000   0.00000  -0.00055
   78 C4      .Z        0.00000   0.02741   0.00000  -0.05700   0.00000
[...]
   41 C2      .S       -0.40832   0.00000   1.14206   0.00000   0.07597
   42 C2      .X        0.00000  -0.00613   0.00000   0.00000   0.00000
   43 C2      .Y        0.00000   0.00000   0.00000  -0.00613   0.00000
   44 C2      .Z        0.11041   0.00000  -0.20692   0.00000  -0.12941
   45 C2      .S        1.02716   0.00000   1.13025   0.00000   2.61500
   46 C2      .X        0.00000   0.21052   0.00000   0.00000   0.00000
   47 C2      .Y        0.00000   0.00000   0.00000   0.21052   0.00000
   48 C2      .Z        2.25587   0.00000  -2.83286   0.00000  -3.93660
   49 C2      .XX       0.60235   0.00000  -1.15436   0.00000  -0.59505
   50 C2      .YY       0.50212   0.00000  -1.15436   0.00000  -0.59505
   51 C2      .ZZ       0.68365   0.00000  -1.56098   0.00000  -0.43210
   52 C2      .XY       0.00000   0.00000   0.00000   0.00000   0.00000
   53 C2      .XZ       0.00000   0.03983   0.00000   0.00000   0.00000
   54 C2      .YZ       0.00000   0.00000   0.00000   0.03983   0.00000
   55 C3      .S       -0.22174   0.00000   0.00000  -0.39362  -0.23051
   56 C3      .S        0.44376   0.00000   0.00000   1.14206   0.07597
   57 C3      .X        0.00000  -0.00613   0.00000   0.00000   0.00000
   58 C3      .Y       -0.12000   0.00000   0.00000  -0.20692  -0.12941
   59 C3      .Z        0.00000   0.00000  -0.00613   0.00000   0.00000
   60 C3      .S       -1.11633   0.00000   0.00000   1.13025   2.61500
   61 C3      .X        0.00000   0.21052   0.00000   0.00000   0.00000
   62 C3      .Y       -2.45171   0.00000   0.00000  -2.83286  -3.93660
   63 C3      .Z        0.00000   0.00000   0.21052   0.00000   0.00000
   64 C3      .XX      -0.63917   0.00000   0.00000  -1.15436  -0.59505
   65 C3      .YY      -0.74299   0.00000   0.00000  -1.56098  -0.43210
   66 C3      .ZZ      -0.56118   0.00000   0.00000  -1.15436  -0.59505
   67 C3      .XY       0.00000   0.03983   0.00000   0.00000   0.00000
   68 C3      .XZ       0.00000   0.00000   0.00000   0.00000   0.00000
   69 C3      .YZ       0.00000   0.00000   0.03983   0.00000   0.00000
   70 C4      .S        0.20403   0.00000   0.39362   0.00000  -0.23051
   71 C4      .S       -0.40832   0.00000  -1.14206   0.00000   0.07597
   72 C4      .X        0.00000  -0.00613   0.00000   0.00000   0.00000
   73 C4      .Y        0.00000   0.00000   0.00000  -0.00613   0.00000
   74 C4      .Z       -0.11041   0.00000  -0.20692   0.00000   0.12941
   75 C4      .S        1.02716   0.00000  -1.13025   0.00000   2.61500
   76 C4      .X        0.00000   0.21052   0.00000   0.00000   0.00000
   77 C4      .Y        0.00000   0.00000   0.00000   0.21052   0.00000
   78 C4      .Z       -2.25587   0.00000  -2.83286   0.00000   3.93660
   79 C4      .XX       0.60235   0.00000   1.15436   0.00000  -0.59505
   80 C4      .YY       0.50212   0.00000   1.15436   0.00000  -0.59505
   81 C4      .ZZ       0.68365   0.00000   1.56098   0.00000  -0.43210
   82 C4      .XY       0.00000   0.00000   0.00000   0.00000   0.00000
   83 C4      .XZ       0.00000  -0.03983   0.00000   0.00000   0.00000
   84 C4      .YZ       0.00000   0.00000   0.00000  -0.03983   0.00000
   85 C5      .S       -0.22174   0.00000   0.00000   0.39362  -0.23051
   86 C5      .S        0.44376   0.00000   0.00000  -1.14206   0.07597
   87 C5      .X        0.00000  -0.00613   0.00000   0.00000   0.00000
   88 C5      .Y        0.12000   0.00000   0.00000  -0.20692   0.12941
   89 C5      .Z        0.00000   0.00000  -0.00613   0.00000   0.00000
   90 C5      .S       -1.11633   0.00000   0.00000  -1.13025   2.61500
   91 C5      .X        0.00000   0.21052   0.00000   0.00000   0.00000
   92 C5      .Y        2.45171   0.00000   0.00000  -2.83286   3.93660
   93 C5      .Z        0.00000   0.00000   0.21052   0.00000   0.00000
   94 C5      .XX      -0.63917   0.00000   0.00000   1.15436  -0.59505
   95 C5      .YY      -0.74299   0.00000   0.00000   1.56098  -0.43210
   96 C5      .ZZ      -0.56118   0.00000   0.00000   1.15436  -0.59505
   97 C5      .XY       0.00000  -0.03983   0.00000   0.00000   0.00000
   98 C5      .XZ       0.00000   0.00000   0.00000   0.00000   0.00000
   99 C5      .YZ       0.00000   0.00000  -0.03983   0.00000   0.00000
  100 C6      .S        0.01771  -0.39362   0.00000   0.00000  -0.23051
  101 C6      .S       -0.03545   1.14206   0.00000   0.00000   0.07597
  102 C6      .X        0.00958  -0.20692   0.00000   0.00000  -0.12941
  103 C6      .Y        0.00000   0.00000   0.00000  -0.00613   0.00000
  104 C6      .Z        0.00000   0.00000  -0.00613   0.00000   0.00000
  105 C6      .S        0.08917   1.13025   0.00000   0.00000   2.61500
  106 C6      .X        0.19583  -2.83286   0.00000   0.00000  -3.93660
  107 C6      .Y        0.00000   0.00000   0.00000   0.21052   0.00000
  108 C6      .Z        0.00000   0.00000   0.21052   0.00000   0.00000
  109 C6      .XX       0.05935  -1.56098   0.00000   0.00000  -0.43210
  110 C6      .YY      -0.04117  -1.15436   0.00000   0.00000  -0.59505
  111 C6      .ZZ       0.13705  -1.15436   0.00000   0.00000  -0.59505
  112 C6      .XY       0.00000   0.00000   0.00000   0.03983   0.00000
  113 C6      .XZ       0.00000   0.00000   0.03983   0.00000   0.00000
  114 C6      .YZ       0.00000   0.00000   0.00000   0.00000   0.00000
  115 C7      .S        0.01771   0.39362   0.00000   0.00000  -0.23051
  116 C7      .S       -0.03545  -1.14206   0.00000   0.00000   0.07597
  117 C7      .X       -0.00958  -0.20692   0.00000   0.00000   0.12941
  118 C7      .Y        0.00000   0.00000   0.00000  -0.00613   0.00000
  119 C7      .Z        0.00000   0.00000  -0.00613   0.00000   0.00000
  120 C7      .S        0.08917  -1.13025   0.00000   0.00000   2.61500
  121 C7      .X       -0.19583  -2.83286   0.00000   0.00000   3.93660
  122 C7      .Y        0.00000   0.00000   0.00000   0.21052   0.00000
  123 C7      .Z        0.00000   0.00000   0.21052   0.00000   0.00000
  124 C7      .XX       0.05935   1.56098   0.00000   0.00000  -0.43210
  125 C7      .YY      -0.04117   1.15436   0.00000   0.00000  -0.59505
  126 C7      .ZZ       0.13705   1.15436   0.00000   0.00000  -0.59505
  127 C7      .XY       0.00000   0.00000   0.00000  -0.03983   0.00000
  128 C7      .XZ       0.00000   0.00000  -0.03983   0.00000   0.00000
  129 C7      .YZ       0.00000   0.00000   0.00000   0.00000   0.00000
  130 O8      .S        0.26180   0.00000  -0.20800   0.00000  -0.18660
  131 O8      .S        0.51838   0.00000  -0.38012   0.00000  -0.49594
  132 O8      .X        0.00000  -0.00042   0.00000   0.00000   0.00000
  133 O8      .Y        0.00000   0.00000   0.00000  -0.00042   0.00000
  134 O8      .Z       -0.00991   0.00000  -0.15301   0.00000   0.04799
  135 O8      .S       -4.69543   0.00000   4.18243   0.00000   4.00537
  136 O8      .X        0.00000  -0.05235   0.00000   0.00000   0.00000
  137 O8      .Y        0.00000   0.00000   0.00000  -0.05235   0.00000
  138 O8      .Z        1.25189   0.00000  -1.29215   0.00000  -0.98296
  139 O8      .XX       0.90914   0.00000  -0.76332   0.00000  -0.62466
  140 O8      .YY       0.92508   0.00000  -0.76332   0.00000  -0.62466
  141 O8      .ZZ       0.54640   0.00000  -0.23447   0.00000  -0.40627
  142 O8      .XY       0.00000   0.00000   0.00000   0.00000   0.00000
  143 O8      .XZ       0.00000   0.01997   0.00000   0.00000   0.00000
  144 O8      .YZ       0.00000   0.00000   0.00000   0.01997   0.00000
  145 O9      .S       -0.28452   0.00000   0.00000  -0.20800  -0.18660
  146 O9      .S       -0.56338   0.00000   0.00000  -0.38012  -0.49594
  147 O9      .X        0.00000  -0.00042   0.00000   0.00000   0.00000
  148 O9      .Y        0.01077   0.00000   0.00000  -0.15301   0.04799
  149 O9      .Z        0.00000   0.00000  -0.00042   0.00000   0.00000
  150 O9      .S        5.10304   0.00000   0.00000   4.18243   4.00537
  151 O9      .X        0.00000  -0.05235   0.00000   0.00000   0.00000
  152 O9      .Y       -1.36057   0.00000   0.00000  -1.29215  -0.98296
  153 O9      .Z        0.00000   0.00000  -0.05235   0.00000   0.00000
  154 O9      .XX      -0.99053   0.00000   0.00000  -0.76332  -0.62466
  155 O9      .YY      -0.59384   0.00000   0.00000  -0.23447  -0.40627
  156 O9      .ZZ      -1.00292   0.00000   0.00000  -0.76332  -0.62466
  157 O9      .XY       0.00000   0.01997   0.00000   0.00000   0.00000
  158 O9      .XZ       0.00000   0.00000   0.00000   0.00000   0.00000
  159 O9      .YZ       0.00000   0.00000   0.01997   0.00000   0.00000
  160 O10     .S        0.26180   0.00000   0.20800   0.00000  -0.18660
  161 O10     .S        0.51838   0.00000   0.38012   0.00000  -0.49594
  162 O10     .X        0.00000  -0.00042   0.00000   0.00000   0.00000
  163 O10     .Y        0.00000   0.00000   0.00000  -0.00042   0.00000
  164 O10     .Z        0.00991   0.00000  -0.15301   0.00000  -0.04799
  165 O10     .S       -4.69543   0.00000  -4.18243   0.00000   4.00537
  166 O10     .X        0.00000  -0.05235   0.00000   0.00000   0.00000
  167 O10     .Y        0.00000   0.00000   0.00000  -0.05235   0.00000
  168 O10     .Z       -1.25189   0.00000  -1.29215   0.00000   0.98296
  169 O10     .XX       0.90914   0.00000   0.76332   0.00000  -0.62466
  170 O10     .YY       0.92508   0.00000   0.76332   0.00000  -0.62466
  171 O10     .ZZ       0.54640   0.00000   0.23447   0.00000  -0.40627
  172 O10     .XY       0.00000   0.00000   0.00000   0.00000   0.00000
  173 O10     .XZ       0.00000  -0.01997   0.00000   0.00000   0.00000
  174 O10     .YZ       0.00000   0.00000   0.00000  -0.01997   0.00000
  175 O11     .S       -0.28452   0.00000   0.00000   0.20800  -0.18660
  176 O11     .S       -0.56338   0.00000   0.00000   0.38012  -0.49594
  177 O11     .X        0.00000  -0.00042   0.00000   0.00000   0.00000
  178 O11     .Y       -0.01077   0.00000   0.00000  -0.15301  -0.04799
  179 O11     .Z        0.00000   0.00000  -0.00042   0.00000   0.00000
  180 O11     .S        5.10304   0.00000   0.00000  -4.18243   4.00537
  181 O11     .X        0.00000  -0.05235   0.00000   0.00000   0.00000
  182 O11     .Y        1.36057   0.00000   0.00000  -1.29215   0.98296
  183 O11     .Z        0.00000   0.00000  -0.05235   0.00000   0.00000
  184 O11     .XX      -0.99053   0.00000   0.00000   0.76332  -0.62466
  185 O11     .YY      -0.59384   0.00000   0.00000   0.23447  -0.40627
  186 O11     .ZZ      -1.00292   0.00000   0.00000   0.76332  -0.62466
  187 O11     .XY       0.00000  -0.01997   0.00000   0.00000   0.00000
  188 O11     .XZ       0.00000   0.00000   0.00000   0.00000   0.00000
  189 O11     .YZ       0.00000   0.00000  -0.01997   0.00000   0.00000
  190 O12     .S        0.02273  -0.20800   0.00000   0.00000  -0.18660
  191 O12     .S        0.04500  -0.38012   0.00000   0.00000  -0.49594
  192 O12     .X       -0.00086  -0.15301   0.00000   0.00000   0.04799
  193 O12     .Y        0.00000   0.00000   0.00000  -0.00042   0.00000
  194 O12     .Z        0.00000   0.00000  -0.00042   0.00000   0.00000
  195 O12     .S       -0.40761   4.18243   0.00000   0.00000   4.00537
  196 O12     .X        0.10868  -1.29215   0.00000   0.00000  -0.98296
  197 O12     .Y        0.00000   0.00000   0.00000  -0.05235   0.00000
  198 O12     .Z        0.00000   0.00000  -0.05235   0.00000   0.00000
  199 O12     .XX       0.04743  -0.23447   0.00000   0.00000  -0.40627
  200 O12     .YY       0.09378  -0.76332   0.00000   0.00000  -0.62466
  201 O12     .ZZ       0.06545  -0.76332   0.00000   0.00000  -0.62466
  202 O12     .XY       0.00000   0.00000   0.00000   0.01997   0.00000
  203 O12     .XZ       0.00000   0.00000   0.01997   0.00000   0.00000
  204 O12     .YZ       0.00000   0.00000   0.00000   0.00000   0.00000
  205 O13     .S        0.02273   0.20800   0.00000   0.00000  -0.18660
  206 O13     .S        0.04500   0.38012   0.00000   0.00000  -0.49594
  207 O13     .X        0.00086  -0.15301   0.00000   0.00000  -0.04799
  208 O13     .Y        0.00000   0.00000   0.00000  -0.00042   0.00000
  209 O13     .Z        0.00000   0.00000  -0.00042   0.00000   0.00000
  210 O13     .S       -0.40761  -4.18243   0.00000   0.00000   4.00537
  211 O13     .X       -0.10868  -1.29215   0.00000   0.00000   0.98296
  212 O13     .Y        0.00000   0.00000   0.00000  -0.05235   0.00000
  213 O13     .Z        0.00000   0.00000  -0.05235   0.00000   0.00000
  214 O13     .XX       0.04743   0.23447   0.00000   0.00000  -0.40627
  215 O13     .YY       0.09378   0.76332   0.00000   0.00000  -0.62466
  216 O13     .ZZ       0.06545   0.76332   0.00000   0.00000  -0.62466
  217 O13     .XY       0.00000   0.00000   0.00000  -0.01997   0.00000
  218 O13     .XZ       0.00000   0.00000  -0.01997   0.00000   0.00000
  219 O13     .YZ       0.00000   0.00000   0.00000   0.00000   0.00000
                         216
                           V    
     Eigenvalues --   395.86133
    1 Cr1     .S       -0.24222
    2 Cr1     .S       -0.42864
    3 Cr1     .X        0.00000
    4 Cr1     .Y        0.00000
    5 Cr1     .Z        0.00000
    6 Cr1     .S      -13.63581
    7 Cr1     .X        0.00000
    8 Cr1     .Y        0.00000
    9 Cr1     .Z        0.00000
   10 Cr1     .S       21.55192
   11 Cr1     .X        0.00000
   12 Cr1     .Y        0.00000
   13 Cr1     .Z        0.00000
   14 Cr1     .S        2.50722
   15 Cr1     .X        0.00000
   16 Cr1     .Y        0.00000
   17 Cr1     .Z        0.00000
   18 Cr1     .XX      -8.08911
   19 Cr1     .YY      -8.08911
   20 Cr1     .ZZ      -8.08911
   21 Cr1     .XY       0.00000
   22 Cr1     .XZ       0.00000
   23 Cr1     .YZ       0.00000
   24 Cr1     .XX       0.79358
   25 Cr1     .YY       0.79358
   26 Cr1     .ZZ       0.79358
   27 Cr1     .XY       0.00000
   28 Cr1     .XZ       0.00000
   29 Cr1     .YZ       0.00000
   30 Cr1     .XXX      0.00000
   31 Cr1     .YYY      0.00000
   32 Cr1     .ZZZ      0.00000
   33 Cr1     .XYY      0.00000
   34 Cr1     .XXY      0.00000
   35 Cr1     .XXZ      0.00000
   36 Cr1     .XZZ      0.00000
   37 Cr1     .YZZ      0.00000
   38 Cr1     .YYZ      0.00000
   39 Cr1     .XYZ      0.00000
   40 C2      .S       -0.12776
   41 C2      .S       -0.35773
   42 C2      .X        0.00000
   43 C2      .Y        0.00000
   44 C2      .Z       -0.02794
   45 C2      .S        3.87343
   46 C2      .X        0.00000
   47 C2      .Y        0.00000
   48 C2      .Z       -3.24578
   49 C2      .XX      -0.21216
   50 C2      .YY      -0.21216
   51 C2      .ZZ      -0.26301
   52 C2      .XY       0.00000
   53 C2      .XZ       0.00000
   54 C2      .YZ       0.00000
   55 C3      .S       -0.12776
   56 C3      .S       -0.35773
   57 C3      .X        0.00000
   58 C3      .Y       -0.02794
   59 C3      .Z        0.00000
   60 C3      .S        3.87343
   61 C3      .X        0.00000
   62 C3      .Y       -3.24578
   63 C3      .Z        0.00000
   64 C3      .XX      -0.21216
   65 C3      .YY      -0.26301
   66 C3      .ZZ      -0.21216
   67 C3      .XY       0.00000
   68 C3      .XZ       0.00000
   69 C3      .YZ       0.00000
   70 C4      .S       -0.12776
   71 C4      .S       -0.35773
   72 C4      .X        0.00000
   73 C4      .Y        0.00000
   74 C4      .Z        0.02794
   75 C4      .S        3.87343
   76 C4      .X        0.00000
   77 C4      .Y        0.00000
   78 C4      .Z        3.24578
   79 C4      .XX      -0.21216
   80 C4      .YY      -0.21216
   81 C4      .ZZ      -0.26301
   82 C4      .XY       0.00000
   83 C4      .XZ       0.00000
   84 C4      .YZ       0.00000
   85 C5      .S       -0.12776
   86 C5      .S       -0.35773
   87 C5      .X        0.00000
   88 C5      .Y        0.02794
   89 C5      .Z        0.00000
   90 C5      .S        3.87343
   91 C5      .X        0.00000
   92 C5      .Y        3.24578
   93 C5      .Z        0.00000
   94 C5      .XX      -0.21216
   95 C5      .YY      -0.26301
   96 C5      .ZZ      -0.21216
   97 C5      .XY       0.00000
   98 C5      .XZ       0.00000
   99 C5      .YZ       0.00000
  100 C6      .S       -0.12776
  101 C6      .S       -0.35773
  102 C6      .X       -0.02794
  103 C6      .Y        0.00000
  104 C6      .Z        0.00000
  105 C6      .S        3.87343
  106 C6      .X       -3.24578
  107 C6      .Y        0.00000
  108 C6      .Z        0.00000
  109 C6      .XX      -0.26301
  110 C6      .YY      -0.21216
  111 C6      .ZZ      -0.21216
  112 C6      .XY       0.00000
  113 C6      .XZ       0.00000
  114 C6      .YZ       0.00000
  115 C7      .S       -0.12776
  116 C7      .S       -0.35773
  117 C7      .X        0.02794
  118 C7      .Y        0.00000
  119 C7      .Z        0.00000
  120 C7      .S        3.87343
  121 C7      .X        3.24578
  122 C7      .Y        0.00000
  123 C7      .Z        0.00000
  124 C7      .XX      -0.26301
  125 C7      .YY      -0.21216
  126 C7      .ZZ      -0.21216
  127 C7      .XY       0.00000
  128 C7      .XZ       0.00000
  129 C7      .YZ       0.00000
  130 O8      .S       -0.04161
  131 O8      .S       -0.16905
  132 O8      .X        0.00000
  133 O8      .Y        0.00000
  134 O8      .Z       -0.03792
  135 O8      .S        1.59964
  136 O8      .X        0.00000
  137 O8      .Y        0.00000
  138 O8      .Z       -0.30657
  139 O8      .XX      -0.11887
  140 O8      .YY      -0.11887
  141 O8      .ZZ      -0.05631
  142 O8      .XY       0.00000
  143 O8      .XZ       0.00000
  144 O8      .YZ       0.00000
  145 O9      .S       -0.04161
  146 O9      .S       -0.16905
  147 O9      .X        0.00000
  148 O9      .Y       -0.03792
  149 O9      .Z        0.00000
  150 O9      .S        1.59964
  151 O9      .X        0.00000
  152 O9      .Y       -0.30657
  153 O9      .Z        0.00000
  154 O9      .XX      -0.11887
  155 O9      .YY      -0.05631
  156 O9      .ZZ      -0.11887
  157 O9      .XY       0.00000
  158 O9      .XZ       0.00000
  159 O9      .YZ       0.00000
  160 O10     .S       -0.04161
  161 O10     .S       -0.16905
  162 O10     .X        0.00000
  163 O10     .Y        0.00000
  164 O10     .Z        0.03792
  165 O10     .S        1.59964
  166 O10     .X        0.00000
  167 O10     .Y        0.00000
  168 O10     .Z        0.30657
  169 O10     .XX      -0.11887
  170 O10     .YY      -0.11887
  171 O10     .ZZ      -0.05631
  172 O10     .XY       0.00000
  173 O10     .XZ       0.00000
  174 O10     .YZ       0.00000
  175 O11     .S       -0.04161
  176 O11     .S       -0.16905
  177 O11     .X        0.00000
  178 O11     .Y        0.03792
  179 O11     .Z        0.00000
  180 O11     .S        1.59964
  181 O11     .X        0.00000
  182 O11     .Y        0.30657
  183 O11     .Z        0.00000
  184 O11     .XX      -0.11887
  185 O11     .YY      -0.05631
  186 O11     .ZZ      -0.11887
  187 O11     .XY       0.00000
  188 O11     .XZ       0.00000
  189 O11     .YZ       0.00000
  190 O12     .S       -0.04161
  191 O12     .S       -0.16905
  192 O12     .X       -0.03792
  193 O12     .Y        0.00000
  194 O12     .Z        0.00000
  195 O12     .S        1.59964
  196 O12     .X       -0.30657
  197 O12     .Y        0.00000
  198 O12     .Z        0.00000
  199 O12     .XX      -0.05631
  200 O12     .YY      -0.11887
  201 O12     .ZZ      -0.11887
  202 O12     .XY       0.00000
  203 O12     .XZ       0.00000
  204 O12     .YZ       0.00000
  205 O13     .S       -0.04161
  206 O13     .S       -0.16905
  207 O13     .X        0.03792
  208 O13     .Y        0.00000
  209 O13     .Z        0.00000
  210 O13     .S        1.59964
  211 O13     .X        0.30657
  212 O13     .Y        0.00000
  213 O13     .Z        0.00000
  214 O13     .XX      -0.05631
  215 O13     .YY      -0.11887
  216 O13     .ZZ      -0.11887
  217 O13     .XY       0.00000
  218 O13     .XZ       0.00000
  219 O13     .YZ       0.00000
