 Entering Gaussian System

 Standard orientation:



 -------------------------------------------------------
     1  24    0     0.000000     0.000000     0.000000
     2   6    0     0.000000     0.000000     1.915427
     3   6    0     0.000000     1.915427     0.000000
     4   6    0     0.000000     0.000000    -1.915427
     5   6    0     0.000000    -1.915427     0.000000
     6   6    0     1.915427     0.000000     0.000000
     7   6    0    -1.915427     0.000000     0.000000
     8   8    0     0.000000     0.000000     3.065051
     9   8    0     0.000000     3.065051     0.000000
    10   8    0     0.000000     0.000000    -3.065051
    11   8    0     0.000000    -3.065051     0.000000
    12   8    0     3.065051     0.000000     0.000000
    13   8    0    -3.065051     0.000000     0.000000
 -------------------------------------------------------

 AO basis set (Overlap normalization):
 Atom Cr1     Shell     1 S    6
   5.1789810000e+04   1.7761819560e-03
   7.7768490000e+03   1.3604759660e-02
   1.7713850000e+03   6.7069248320e-02
   4.9915880000e+02   2.3231039420e-01
   1.5979820000e+02   4.8024098800e-01
   5.4470210000e+01   3.4876529130e-01
 Atom Cr1     Shell     2 SP   6
   1.0643280000e+03   2.3996690270e-03   3.9869969690e-03
   2.5321380000e+02   3.1948860350e-02   3.1046619760e-02
   8.1609240000e+01   1.2508680140e-01   1.3505179890e-01
   3.0481930000e+01  -3.2218660360e-02   3.4488649730e-01
   1.2294390000e+01  -6.1722840690e-01   4.6285709640e-01
   5.0377220000e+00  -4.5259360500e-01   2.1104259840e-01
 Atom Cr1     Shell     3 SP   6
   4.1562910000e+01  -3.4542159780e-03  -6.7224970170e-03
   1.3676270000e+01   7.2184279530e-02  -2.8064710070e-02
   5.8443900000e+00   2.5448199840e-01   5.8200280150e-02
   2.4716090000e+00  -2.9345339810e-01   3.9169880100e-01
   1.0283080000e+00  -7.3854549520e-01   5.0478230130e-01
   4.0725000000e-01  -1.9471569870e-01   1.7902900050e-01
 Atom Cr1     Shell     4 SP   3
   1.5714640000e+00   5.8922214600e-02  -1.9301000800e-01
   6.0558000000e-01   2.9760562420e-01   9.6056203980e-02
   9.8561000000e-02  -1.1475064790e+00   9.8176094070e-01
 Atom Cr1     Shell     5 SP   1
   3.6459000000e-02   1.0000000000e+00   1.0000000000e+00
 Atom Cr1     Shell     6 D    3
   1.8419300000e+01   8.6508163350e-02
   4.8126610000e+00   3.8266991480e-01
   1.4464470000e+00   7.0937722740e-01
 Atom Cr1     Shell     7 D    1
   4.0041300000e-01   1.0000000000e+00
 Atom Cr1     Shell     8 F    1
   8.0000000000e-01   1.0000000000e+00
 Atom  C2     Shell     9 S    6
   3.0475248800e+03   1.8347371320e-03
   4.5736951800e+02   1.4037322810e-02
   1.0394868500e+02   6.8842622260e-02
   2.9210155300e+01   2.3218444320e-01
   9.2866629600e+00   4.6794134840e-01
   3.1639269600e+00   3.6231198530e-01
 Atom  C2     Shell    10 SP   3
   7.8682723500e+00  -1.1933241980e-01   6.8999066590e-02
   1.8812885400e+00  -1.6085415170e-01   3.1642396100e-01
   5.4424925800e-01   1.1434564380e+00   7.4430829090e-01
 Atom  C2     Shell    11 SP   1
   1.6871447820e-01   1.0000000000e+00   1.0000000000e+00
 Atom  C2     Shell    12 D    1
   8.0000000000e-01   1.0000000000e+00
 Atom  C3     Shell    13 S    6
   3.0475248800e+03   1.8347371320e-03
   4.5736951800e+02   1.4037322810e-02
   1.0394868500e+02   6.8842622260e-02
   2.9210155300e+01   2.3218444320e-01
   9.2866629600e+00   4.6794134840e-01
   3.1639269600e+00   3.6231198530e-01
 Atom  C3     Shell    14 SP   3
   7.8682723500e+00  -1.1933241980e-01   6.8999066590e-02
   1.8812885400e+00  -1.6085415170e-01   3.1642396100e-01
   5.4424925800e-01   1.1434564380e+00   7.4430829090e-01
 Atom  C3     Shell    15 SP   1
   1.6871447820e-01   1.0000000000e+00   1.0000000000e+00
 Atom  C3     Shell    16 D    1
   8.0000000000e-01   1.0000000000e+00
 Atom  C4     Shell    17 S    6
   3.0475248800e+03   1.8347371320e-03
   4.5736951800e+02   1.4037322810e-02
   1.0394868500e+02   6.8842622260e-02
   2.9210155300e+01   2.3218444320e-01
   9.2866629600e+00   4.6794134840e-01
   3.1639269600e+00   3.6231198530e-01
 Atom  C4     Shell    18 SP   3
   7.8682723500e+00  -1.1933241980e-01   6.8999066590e-02
   1.8812885400e+00  -1.6085415170e-01   3.1642396100e-01
   5.4424925800e-01   1.1434564380e+00   7.4430829090e-01
 Atom  C4     Shell    19 SP   1
   1.6871447820e-01   1.0000000000e+00   1.0000000000e+00
 Atom  C4     Shell    20 D    1
   8.0000000000e-01   1.0000000000e+00
 Atom  C5     Shell    21 S    6
   3.0475248800e+03   1.8347371320e-03
   4.5736951800e+02   1.4037322810e-02
   1.0394868500e+02   6.8842622260e-02
   2.9210155300e+01   2.3218444320e-01
   9.2866629600e+00   4.6794134840e-01
   3.1639269600e+00   3.6231198530e-01
 Atom  C5     Shell    22 SP   3
   7.8682723500e+00  -1.1933241980e-01   6.8999066590e-02
   1.8812885400e+00  -1.6085415170e-01   3.1642396100e-01
   5.4424925800e-01   1.1434564380e+00   7.4430829090e-01
 Atom  C5     Shell    23 SP   1
   1.6871447820e-01   1.0000000000e+00   1.0000000000e+00
 Atom  C5     Shell    24 D    1
   8.0000000000e-01   1.0000000000e+00
 Atom  C6     Shell    25 S    6
   3.0475248800e+03   1.8347371320e-03
   4.5736951800e+02   1.4037322810e-02
   1.0394868500e+02   6.8842622260e-02
   2.9210155300e+01   2.3218444320e-01
   9.2866629600e+00   4.6794134840e-01
   3.1639269600e+00   3.6231198530e-01
 Atom  C6     Shell    26 SP   3
   7.8682723500e+00  -1.1933241980e-01   6.8999066590e-02
   1.8812885400e+00  -1.6085415170e-01   3.1642396100e-01
   5.4424925800e-01   1.1434564380e+00   7.4430829090e-01
 Atom  C6     Shell    27 SP   1
   1.6871447820e-01   1.0000000000e+00   1.0000000000e+00
 Atom  C6     Shell    28 D    1
   8.0000000000e-01   1.0000000000e+00
 Atom  C7     Shell    29 S    6
   3.0475248800e+03   1.8347371320e-03
   4.5736951800e+02   1.4037322810e-02
   1.0394868500e+02   6.8842622260e-02
   2.9210155300e+01   2.3218444320e-01
   9.2866629600e+00   4.6794134840e-01
   3.1639269600e+00   3.6231198530e-01
 Atom  C7     Shell    30 SP   3
   7.8682723500e+00  -1.1933241980e-01   6.8999066590e-02
   1.8812885400e+00  -1.6085415170e-01   3.1642396100e-01
   5.4424925800e-01   1.1434564380e+00   7.4430829090e-01
 Atom  C7     Shell    31 SP   1
   1.6871447820e-01   1.0000000000e+00   1.0000000000e+00
 Atom  C7     Shell    32 D    1
   8.0000000000e-01   1.0000000000e+00
 Atom  O8     Shell    33 S    6
   5.4846716600e+03   1.8310744300e-03
   8.2523494600e+02   1.3950172200e-02
   1.8804695800e+02   6.8445078100e-02
   5.2964500000e+01   2.3271433600e-01
   1.6897570400e+01   4.7019289800e-01
   5.7996353400e+00   3.5852085300e-01
 Atom  O8     Shell    34 SP   3
   1.5539616250e+01  -1.1077754950e-01   7.0874268230e-02
   3.5999335860e+00  -1.4802626270e-01   3.3975283910e-01
   1.0137617500e+00   1.1307670150e+00   7.2715857730e-01
 Atom  O8     Shell    35 SP   1
   2.7000582260e-01   1.0000000000e+00   1.0000000000e+00
 Atom  O8     Shell    36 D    1
   8.0000000000e-01   1.0000000000e+00
 Atom  O9     Shell    37 S    6
   5.4846716600e+03   1.8310744300e-03
   8.2523494600e+02   1.3950172200e-02
   1.8804695800e+02   6.8445078100e-02
   5.2964500000e+01   2.3271433600e-01
   1.6897570400e+01   4.7019289800e-01
   5.7996353400e+00   3.5852085300e-01
 Atom  O9     Shell    38 SP   3
   1.5539616250e+01  -1.1077754950e-01   7.0874268230e-02
   3.5999335860e+00  -1.4802626270e-01   3.3975283910e-01
   1.0137617500e+00   1.1307670150e+00   7.2715857730e-01
 Atom  O9     Shell    39 SP   1
   2.7000582260e-01   1.0000000000e+00   1.0000000000e+00
 Atom  O9     Shell    40 D    1
   8.0000000000e-01   1.0000000000e+00
 Atom  O10    Shell    41 S    6
   5.4846716600e+03   1.8310744300e-03
   8.2523494600e+02   1.3950172200e-02
   1.8804695800e+02   6.8445078100e-02
   5.2964500000e+01   2.3271433600e-01
   1.6897570400e+01   4.7019289800e-01
   5.7996353400e+00   3.5852085300e-01
 Atom  O10    Shell    42 SP   3
   1.5539616250e+01  -1.1077754950e-01   7.0874268230e-02
   3.5999335860e+00  -1.4802626270e-01   3.3975283910e-01
   1.0137617500e+00   1.1307670150e+00   7.2715857730e-01
 Atom  O10    Shell    43 SP   1
   2.7000582260e-01   1.0000000000e+00   1.0000000000e+00
 Atom  O10    Shell    44 D    1
   8.0000000000e-01   1.0000000000e+00
 Atom  O11    Shell    45 S    6
   5.4846716600e+03   1.8310744300e-03
   8.2523494600e+02   1.3950172200e-02
   1.8804695800e+02   6.8445078100e-02
   5.2964500000e+01   2.3271433600e-01
   1.6897570400e+01   4.7019289800e-01
   5.7996353400e+00   3.5852085300e-01
 Atom  O11    Shell    46 SP   3
   1.5539616250e+01  -1.1077754950e-01   7.0874268230e-02
   3.5999335860e+00  -1.4802626270e-01   3.3975283910e-01
   1.0137617500e+00   1.1307670150e+00   7.2715857730e-01
 Atom  O11    Shell    47 SP   1
   2.7000582260e-01   1.0000000000e+00   1.0000000000e+00
 Atom  O11    Shell    48 D    1
   8.0000000000e-01   1.0000000000e+00
 Atom  O12    Shell    49 S    6
   5.4846716600e+03   1.8310744300e-03
   8.2523494600e+02   1.3950172200e-02
   1.8804695800e+02   6.8445078100e-02
   5.2964500000e+01   2.3271433600e-01
   1.6897570400e+01   4.7019289800e-01
   5.7996353400e+00   3.5852085300e-01
 Atom  O12    Shell    50 SP   3
   1.5539616250e+01  -1.1077754950e-01   7.0874268230e-02
   3.5999335860e+00  -1.4802626270e-01   3.3975283910e-01
   1.0137617500e+00   1.1307670150e+00   7.2715857730e-01
 Atom  O12    Shell    51 SP   1
   2.7000582260e-01   1.0000000000e+00   1.0000000000e+00
 Atom  O12    Shell    52 D    1
   8.0000000000e-01   1.0000000000e+00
 Atom  O13    Shell    53 S    6
   5.4846716600e+03   1.8310744300e-03
   8.2523494600e+02   1.3950172200e-02
   1.8804695800e+02   6.8445078100e-02
   5.2964500000e+01   2.3271433600e-01
   1.6897570400e+01   4.7019289800e-01
   5.7996353400e+00   3.5852085300e-01
 Atom  O13    Shell    54 SP   3
   1.5539616250e+01  -1.1077754950e-01   7.0874268230e-02
   3.5999335860e+00  -1.4802626270e-01   3.3975283910e-01
   1.0137617500e+00   1.1307670150e+00   7.2715857730e-01
 Atom  O13    Shell    55 SP   1
   2.7000582260e-01   1.0000000000e+00   1.0000000000e+00
 Atom  O13    Shell    56 D    1
   8.0000000000e-01   1.0000000000e+00

 Molecular Orbital Coefficients:
                           1         2         3         4         5
                           O         O         O         O         O    
     Eigenvalues --  -5733.1114-776.16520-571.48805-571.48805-571.48805
    1 Cr1     .S        0.93166   0.47088   0.00000  -0.00000  -0.00000
    2 Cr1     .S       -0.19373   1.09228   0.00000   0.00000  -0.00000
    3 Cr1     .X        0.00000  -0.00000   1.01669   0.00000  -0.00000
    4 Cr1     .Y        0.00000  -0.00000  -0.00000   1.01669  -0.00000
    5 Cr1     .Z       -0.00000   0.00000   0.00000   0.00000   1.01669
    6 Cr1     .S        0.09078  -0.19068   0.00000   0.00000  -0.00000
    7 Cr1     .X       -0.00000  -0.00000  -0.05460   0.00000   0.00000
    8 Cr1     .Y        0.00000   0.00000   0.00000  -0.05460   0.00000
    9 Cr1     .Z       -0.00000   0.00000   0.00000  -0.00000  -0.05460
   10 Cr1     .S        0.00664   0.01361   0.00000   0.00000  -0.00000
   11 Cr1     .X       -0.00000   0.00000  -0.00373   0.00000   0.00000
   12 Cr1     .Y        0.00000  -0.00000   0.00000  -0.00373  -0.00000
   13 Cr1     .Z       -0.00000   0.00000  -0.00000  -0.00000  -0.00373
   14 Cr1     .S        0.00112   0.00062  -0.00000   0.00000  -0.00000
   15 Cr1     .X        0.00000  -0.00000   0.00025  -0.00000  -0.00000
   16 Cr1     .Y       -0.00000   0.00000  -0.00000   0.00025   0.00000
   17 Cr1     .Z        0.00000  -0.00000   0.00000   0.00000   0.00025
   18 Cr1     .XX       0.00759   0.01335   0.00000  -0.00000   0.00000
   19 Cr1     .YY       0.00759   0.01335  -0.00000   0.00000  -0.00000
   20 Cr1     .ZZ       0.00759   0.01335   0.00000   0.00000  -0.00000
   21 Cr1     .XY       0.00000  -0.00000   0.00000   0.00000  -0.00000
   22 Cr1     .XZ      -0.00000   0.00000   0.00000  -0.00000   0.00000
   23 Cr1     .YZ       0.00000   0.00000   0.00000  -0.00000   0.00000
   24 Cr1     .XX       0.00067   0.00452   0.00000  -0.00000   0.00000
   25 Cr1     .YY       0.00067   0.00452  -0.00000   0.00000  -0.00000
   26 Cr1     .ZZ       0.00067   0.00452   0.00000   0.00000  -0.00000
   27 Cr1     .XY       0.00000  -0.00000   0.00000   0.00000  -0.00000
   28 Cr1     .XZ      -0.00000   0.00000   0.00000   0.00000   0.00000
   29 Cr1     .YZ      -0.00000   0.00000   0.00000  -0.00000   0.00000
   30 Cr1     .XXX     -0.00000   0.00000  -0.00000   0.00000   0.00000
   31 Cr1     .YYY     -0.00000   0.00000   0.00000   0.00000   0.00000
   32 Cr1     .ZZZ     -0.00000   0.00000  -0.00000   0.00000  -0.00000
   33 Cr1     .XYY      0.00000   0.00000  -0.00000   0.00000   0.00000
   34 Cr1     .XXY     -0.00000   0.00000   0.00000   0.00000   0.00000
   35 Cr1     .XXZ     -0.00000   0.00000  -0.00000   0.00000  -0.00000
   36 Cr1     .XZZ     -0.00000  -0.00000   0.00000  -0.00000  -0.00000
   37 Cr1     .YZZ     -0.00000   0.00000   0.00000   0.00000   0.00000
   38 Cr1     .YYZ     -0.00000   0.00000  -0.00000   0.00000  -0.00000
   39 Cr1     .XYZ     -0.00000  -0.00000   0.00000  -0.00000  -0.00000
   40 C2      .S       -0.00015   0.00030  -0.00000   0.00000  -0.00009
   41 C2      .S        0.00014  -0.00132   0.00000  -0.00000   0.00057
   42 C2      .X        0.00000  -0.00000   0.00017  -0.00000  -0.00000
   43 C2      .Y       -0.00000   0.00000  -0.00000   0.00017   0.00000
   44 C2      .Z       -0.00019   0.00071  -0.00000   0.00000  -0.00007
   45 C2      .S        0.00150   0.00077   0.00000  -0.00000   0.00167
   46 C2      .X        0.00000  -0.00000   0.00060  -0.00000  -0.00000
   47 C2      .Y       -0.00000   0.00000  -0.00000   0.00060   0.00000
   48 C2      .Z       -0.00148  -0.00041  -0.00000   0.00000   0.00073
   49 C2      .XX      -0.00001  -0.00025   0.00000  -0.00000   0.00007
   50 C2      .YY      -0.00001  -0.00025   0.00000  -0.00000   0.00007
   51 C2      .ZZ       0.00003  -0.00019   0.00000   0.00000   0.00007
   52 C2      .XY      -0.00000   0.00000   0.00000   0.00000  -0.00000
   53 C2      .XZ       0.00000  -0.00000   0.00000  -0.00000  -0.00000
   54 C2      .YZ      -0.00000   0.00000   0.00000   0.00000   0.00000
   55 C3      .S       -0.00015   0.00030  -0.00000  -0.00009  -0.00000
   56 C3      .S        0.00014  -0.00132  -0.00000   0.00057   0.00000
   57 C3      .X       -0.00000  -0.00000   0.00017  -0.00000  -0.00000
   58 C3      .Y       -0.00019   0.00071   0.00000  -0.00007  -0.00000
   59 C3      .Z        0.00000  -0.00000   0.00000   0.00000   0.00017
   60 C3      .S        0.00150   0.00077  -0.00000   0.00167   0.00000
   61 C3      .X       -0.00000  -0.00000   0.00060  -0.00000  -0.00000
   62 C3      .Y       -0.00148  -0.00041   0.00000   0.00073  -0.00000
   63 C3      .Z        0.00000  -0.00000   0.00000   0.00000   0.00060
   64 C3      .XX      -0.00001  -0.00025   0.00000   0.00007   0.00000
   65 C3      .YY       0.00003  -0.00019  -0.00000   0.00007   0.00000
   66 C3      .ZZ      -0.00001  -0.00025   0.00000   0.00007   0.00000
   67 C3      .XY       0.00000  -0.00000   0.00000  -0.00000  -0.00000
   68 C3      .XZ      -0.00000  -0.00000   0.00000  -0.00000  -0.00000
   69 C3      .YZ       0.00000  -0.00000  -0.00000   0.00000   0.00000
   70 C4      .S       -0.00015   0.00030   0.00000   0.00000   0.00009
   71 C4      .S        0.00014  -0.00132  -0.00000  -0.00000  -0.00057
   72 C4      .X        0.00000  -0.00000   0.00017  -0.00000  -0.00000
   73 C4      .Y       -0.00000   0.00000  -0.00000   0.00017   0.00000
   74 C4      .Z        0.00019  -0.00071  -0.00000  -0.00000  -0.00007
   75 C4      .S        0.00150   0.00077  -0.00000  -0.00000  -0.00167
   76 C4      .X       -0.00000  -0.00000   0.00060  -0.00000  -0.00000
   77 C4      .Y       -0.00000   0.00000  -0.00000   0.00060   0.00000
   78 C4      .Z        0.00148   0.00041  -0.00000  -0.00000   0.00073
   79 C4      .XX      -0.00001  -0.00025  -0.00000  -0.00000  -0.00007
   80 C4      .YY      -0.00001  -0.00025  -0.00000  -0.00000  -0.00007
   81 C4      .ZZ       0.00003  -0.00019  -0.00000   0.00000  -0.00007
   82 C4      .XY       0.00000  -0.00000   0.00000   0.00000   0.00000
   83 C4      .XZ      -0.00000   0.00000  -0.00000   0.00000  -0.00000
   84 C4      .YZ       0.00000  -0.00000  -0.00000  -0.00000   0.00000
   85 C5      .S       -0.00015   0.00030  -0.00000   0.00009  -0.00000
   86 C5      .S        0.00014  -0.00132   0.00000  -0.00057   0.00000
   87 C5      .X        0.00000  -0.00000   0.00017  -0.00000  -0.00000
   88 C5      .Y        0.00019  -0.00071   0.00000  -0.00007   0.00000
   89 C5      .Z        0.00000  -0.00000   0.00000  -0.00000   0.00017
   90 C5      .S        0.00150   0.00077   0.00000  -0.00167   0.00000
   91 C5      .X        0.00000  -0.00000   0.00060  -0.00000   0.00000
   92 C5      .Y        0.00148   0.00041   0.00000   0.00073   0.00000
   93 C5      .Z        0.00000  -0.00000   0.00000  -0.00000   0.00060
   94 C5      .XX      -0.00001  -0.00025   0.00000  -0.00007   0.00000
   95 C5      .YY       0.00003  -0.00019   0.00000  -0.00007   0.00000
   96 C5      .ZZ      -0.00001  -0.00025   0.00000  -0.00007   0.00000
   97 C5      .XY      -0.00000   0.00000  -0.00000  -0.00000   0.00000
   98 C5      .XZ      -0.00000   0.00000  -0.00000  -0.00000   0.00000
   99 C5      .YZ      -0.00000   0.00000   0.00000   0.00000  -0.00000
  100 C6      .S       -0.00015   0.00030  -0.00009  -0.00000   0.00000
  101 C6      .S        0.00014  -0.00132   0.00057   0.00000  -0.00000
  102 C6      .X       -0.00019   0.00071  -0.00007  -0.00000   0.00000
  103 C6      .Y       -0.00000   0.00000  -0.00000   0.00017   0.00000
  104 C6      .Z        0.00000  -0.00000   0.00000  -0.00000   0.00017
  105 C6      .S        0.00150   0.00077   0.00167   0.00000  -0.00000
  106 C6      .X       -0.00148  -0.00041   0.00073  -0.00000   0.00000
  107 C6      .Y       -0.00000   0.00000  -0.00000   0.00060   0.00000
  108 C6      .Z        0.00000  -0.00000   0.00000  -0.00000   0.00060
  109 C6      .XX       0.00003  -0.00019   0.00007   0.00000  -0.00000
  110 C6      .YY      -0.00001  -0.00025   0.00007   0.00000  -0.00000
  111 C6      .ZZ      -0.00001  -0.00025   0.00007   0.00000  -0.00000
  112 C6      .XY      -0.00000  -0.00000  -0.00000   0.00000   0.00000
  113 C6      .XZ       0.00000  -0.00000   0.00000   0.00000   0.00000
  114 C6      .YZ      -0.00000  -0.00000  -0.00000  -0.00000  -0.00000
  115 C7      .S       -0.00015   0.00030   0.00009  -0.00000   0.00000
  116 C7      .S        0.00014  -0.00132  -0.00057   0.00000  -0.00000
  117 C7      .X        0.00019  -0.00071  -0.00007   0.00000  -0.00000
  118 C7      .Y       -0.00000   0.00000  -0.00000   0.00017  -0.00000
  119 C7      .Z        0.00000  -0.00000   0.00000  -0.00000   0.00017
  120 C7      .S        0.00150   0.00077  -0.00167   0.00000  -0.00000
  121 C7      .X        0.00148   0.00041   0.00073   0.00000  -0.00000
  122 C7      .Y       -0.00000   0.00000  -0.00000   0.00060  -0.00000
  123 C7      .Z        0.00000  -0.00000   0.00000  -0.00000   0.00060
  124 C7      .XX       0.00003  -0.00019  -0.00007   0.00000  -0.00000
  125 C7      .YY      -0.00001  -0.00025  -0.00007   0.00000  -0.00000
  126 C7      .ZZ      -0.00001  -0.00025  -0.00007   0.00000  -0.00000
  127 C7      .XY       0.00000   0.00000  -0.00000  -0.00000  -0.00000
  128 C7      .XZ      -0.00000   0.00000   0.00000   0.00000  -0.00000
  129 C7      .YZ       0.00000  -0.00000  -0.00000  -0.00000  -0.00000
  130 O8      .S       -0.00001  -0.00007   0.00000   0.00000   0.00006
  131 O8      .S       -0.00013  -0.00010   0.00000  -0.00000  -0.00027
  132 O8      .X       -0.00000  -0.00000  -0.00008  -0.00000  -0.00000
  133 O8      .Y        0.00000  -0.00000   0.00000  -0.00008   0.00000
  134 O8      .Z        0.00008  -0.00024  -0.00000  -0.00000   0.00008
  135 O8      .S        0.00077   0.00081  -0.00000   0.00000  -0.00077
  136 O8      .X       -0.00000  -0.00000  -0.00006  -0.00000  -0.00000
  137 O8      .Y        0.00000  -0.00000   0.00000  -0.00006   0.00000
  138 O8      .Z       -0.00009  -0.00031  -0.00000  -0.00000   0.00033
  139 O8      .XX      -0.00008  -0.00006   0.00000  -0.00000   0.00005
  140 O8      .YY      -0.00008  -0.00006   0.00000  -0.00000   0.00005
  141 O8      .ZZ      -0.00008  -0.00005   0.00000  -0.00000   0.00006
  142 O8      .XY      -0.00000  -0.00000  -0.00000   0.00000  -0.00000
  143 O8      .XZ      -0.00000   0.00000   0.00001   0.00000   0.00000
  144 O8      .YZ      -0.00000   0.00000  -0.00000   0.00001  -0.00000
  145 O9      .S       -0.00001  -0.00007  -0.00000   0.00006   0.00000
  146 O9      .S       -0.00013  -0.00010  -0.00000  -0.00027   0.00000
  147 O9      .X        0.00000  -0.00000  -0.00008  -0.00000  -0.00000
  148 O9      .Y        0.00008  -0.00024   0.00000   0.00008   0.00000
  149 O9      .Z       -0.00000   0.00000   0.00000   0.00000  -0.00008
  150 O9      .S        0.00077   0.00081   0.00000  -0.00077  -0.00000
  151 O9      .X        0.00000   0.00000  -0.00006  -0.00000   0.00000
  152 O9      .Y       -0.00009  -0.00031   0.00000   0.00033   0.00000
  153 O9      .Z       -0.00000   0.00000   0.00000   0.00000  -0.00006
  154 O9      .XX      -0.00008  -0.00006  -0.00000   0.00005   0.00000
  155 O9      .YY      -0.00008  -0.00005  -0.00000   0.00006   0.00000
  156 O9      .ZZ      -0.00008  -0.00006  -0.00000   0.00005   0.00000
  157 O9      .XY      -0.00000   0.00000   0.00001   0.00000   0.00000
  158 O9      .XZ      -0.00000  -0.00000  -0.00000  -0.00000   0.00000
  159 O9      .YZ       0.00000  -0.00000   0.00000  -0.00000   0.00001
  160 O10     .S       -0.00001  -0.00007   0.00000  -0.00000  -0.00006
  161 O10     .S       -0.00013  -0.00010  -0.00000  -0.00000   0.00027
  162 O10     .X       -0.00000  -0.00000  -0.00008  -0.00000   0.00000
  163 O10     .Y        0.00000  -0.00000   0.00000  -0.00008  -0.00000
  164 O10     .Z       -0.00008   0.00024  -0.00000  -0.00000   0.00008
  165 O10     .S        0.00077   0.00081  -0.00000   0.00000   0.00077
  166 O10     .X       -0.00000  -0.00000  -0.00006  -0.00000  -0.00000
  167 O10     .Y        0.00000  -0.00000   0.00000  -0.00006  -0.00000
  168 O10     .Z        0.00009   0.00031  -0.00000   0.00000   0.00033
  169 O10     .XX      -0.00008  -0.00006  -0.00000  -0.00000  -0.00005
  170 O10     .YY      -0.00008  -0.00006  -0.00000  -0.00000  -0.00005
  171 O10     .ZZ      -0.00008  -0.00005  -0.00000  -0.00000  -0.00006
  172 O10     .XY      -0.00000  -0.00000  -0.00000   0.00000  -0.00000
  173 O10     .XZ       0.00000  -0.00000  -0.00001  -0.00000   0.00000
  174 O10     .YZ       0.00000  -0.00000   0.00000  -0.00001  -0.00000
  175 O11     .S       -0.00001  -0.00007   0.00000  -0.00006   0.00000
  176 O11     .S       -0.00013  -0.00010   0.00000   0.00027   0.00000
  177 O11     .X       -0.00000  -0.00000  -0.00008   0.00000  -0.00000
  178 O11     .Y       -0.00008   0.00024  -0.00000   0.00008  -0.00000
  179 O11     .Z       -0.00000   0.00000   0.00000   0.00000  -0.00008
  180 O11     .S        0.00077   0.00081  -0.00000   0.00077  -0.00000
  181 O11     .X       -0.00000   0.00000  -0.00006   0.00000  -0.00000
  182 O11     .Y        0.00009   0.00031  -0.00000   0.00033  -0.00000
  183 O11     .Z       -0.00000   0.00000   0.00000   0.00000  -0.00006
  184 O11     .XX      -0.00008  -0.00006   0.00000  -0.00005   0.00000
  185 O11     .YY      -0.00008  -0.00005   0.00000  -0.00006   0.00000
  186 O11     .ZZ      -0.00008  -0.00006   0.00000  -0.00005   0.00000
  187 O11     .XY       0.00000  -0.00000  -0.00001   0.00000  -0.00000
  188 O11     .XZ      -0.00000  -0.00000   0.00000  -0.00000   0.00000
  189 O11     .YZ      -0.00000   0.00000  -0.00000  -0.00000  -0.00001
  190 O12     .S       -0.00001  -0.00007   0.00006  -0.00000  -0.00000
  191 O12     .S       -0.00013  -0.00010  -0.00027   0.00000  -0.00000
  192 O12     .X        0.00008  -0.00024   0.00008   0.00000  -0.00000
  193 O12     .Y        0.00000  -0.00000  -0.00000  -0.00008  -0.00000
  194 O12     .Z       -0.00000   0.00000  -0.00000   0.00000  -0.00008
  195 O12     .S        0.00077   0.00081  -0.00077  -0.00000   0.00000
  196 O12     .X       -0.00009  -0.00031   0.00033   0.00000  -0.00000
  197 O12     .Y        0.00000  -0.00000  -0.00000  -0.00006  -0.00000
  198 O12     .Z       -0.00000   0.00000  -0.00000   0.00000  -0.00006
  199 O12     .XX      -0.00008  -0.00005   0.00006   0.00000  -0.00000
  200 O12     .YY      -0.00008  -0.00006   0.00005   0.00000  -0.00000
  201 O12     .ZZ      -0.00008  -0.00006   0.00005   0.00000  -0.00000
  202 O12     .XY      -0.00000   0.00000   0.00000   0.00001  -0.00000
  203 O12     .XZ       0.00000  -0.00000   0.00000  -0.00000   0.00001
  204 O12     .YZ      -0.00000  -0.00000  -0.00000   0.00000  -0.00000
  205 O13     .S       -0.00001  -0.00007  -0.00006   0.00000  -0.00000
  206 O13     .S       -0.00013  -0.00010   0.00027   0.00000  -0.00000
  207 O13     .X       -0.00008   0.00024   0.00008  -0.00000   0.00000
  208 O13     .Y        0.00000  -0.00000  -0.00000  -0.00008   0.00000
  209 O13     .Z       -0.00000   0.00000  -0.00000  -0.00000  -0.00008
  210 O13     .S        0.00077   0.00081   0.00077  -0.00000   0.00000
  211 O13     .X        0.00009   0.00031   0.00033  -0.00000   0.00000
  212 O13     .Y        0.00000  -0.00000  -0.00000  -0.00006   0.00000
  213 O13     .Z       -0.00000   0.00000  -0.00000  -0.00000  -0.00006
  214 O13     .XX      -0.00008  -0.00005  -0.00006   0.00000  -0.00000
  215 O13     .YY      -0.00008  -0.00006  -0.00005   0.00000  -0.00000
  216 O13     .ZZ      -0.00008  -0.00006  -0.00005   0.00000  -0.00000
  217 O13     .XY       0.00000  -0.00000   0.00000  -0.00001   0.00000
  218 O13     .XZ      -0.00000   0.00000  -0.00000  -0.00000  -0.00001
  219 O13     .YZ      -0.00000  -0.00000  -0.00000   0.00000   0.00000
                           6         7         8         9        10
                           O         O         O         O         O    
     Eigenvalues --  -516.18873-516.18873-516.18873-516.18873-516.18873
    1 Cr1     .S       -0.00019  -0.00019  -0.00019  -0.00019  -0.00019
    2 Cr1     .S       -0.00015  -0.00015  -0.00015  -0.00015  -0.00015
    3 Cr1     .X        0.00044  -0.00044  -0.00000  -0.00000  -0.00000
    4 Cr1     .Y        0.00000  -0.00000   0.00000  -0.00000   0.00044
    5 Cr1     .Z       -0.00000  -0.00000  -0.00044   0.00044   0.00000
    6 Cr1     .S        0.00188   0.00188   0.00188   0.00188   0.00188
    7 Cr1     .X       -0.00379   0.00379  -0.00000   0.00000   0.00000
    8 Cr1     .Y       -0.00000   0.00000   0.00000  -0.00000  -0.00379
    9 Cr1     .Z        0.00000   0.00000   0.00379  -0.00379   0.00000
   10 Cr1     .S        0.00761   0.00761   0.00761   0.00761   0.00761
   11 Cr1     .X       -0.01302   0.01302   0.00000  -0.00000   0.00000
   12 Cr1     .Y        0.00000   0.00000   0.00000   0.00000  -0.01302
   13 Cr1     .Z        0.00000   0.00000   0.01302  -0.01302   0.00000
   14 Cr1     .S        0.00357   0.00357   0.00357   0.00357   0.00357
   15 Cr1     .X        0.00262  -0.00262  -0.00000  -0.00000  -0.00000
   16 Cr1     .Y       -0.00000  -0.00000  -0.00000  -0.00000   0.00262
   17 Cr1     .Z       -0.00000  -0.00000  -0.00262   0.00262  -0.00000
   18 Cr1     .XX      -0.00166  -0.00166  -0.00035  -0.00035  -0.00035
   19 Cr1     .YY      -0.00035  -0.00035  -0.00035  -0.00035  -0.00166
   20 Cr1     .ZZ      -0.00035  -0.00035  -0.00166  -0.00166  -0.00035
   21 Cr1     .XY      -0.00000   0.00000   0.00000  -0.00000   0.00000
   22 Cr1     .XZ       0.00000   0.00000  -0.00000  -0.00000  -0.00000
   23 Cr1     .YZ      -0.00000   0.00000  -0.00000  -0.00000  -0.00000
   24 Cr1     .XX      -0.00371  -0.00371   0.00167   0.00167   0.00167
   25 Cr1     .YY       0.00167   0.00167   0.00167   0.00167  -0.00371
   26 Cr1     .ZZ       0.00167   0.00167  -0.00371  -0.00371   0.00167
   27 Cr1     .XY      -0.00000   0.00000  -0.00000  -0.00000   0.00000
   28 Cr1     .XZ      -0.00000  -0.00000  -0.00000  -0.00000  -0.00000
   29 Cr1     .YZ      -0.00000  -0.00000  -0.00000  -0.00000   0.00000
   30 Cr1     .XXX      0.00000  -0.00000  -0.00000  -0.00000  -0.00000
   31 Cr1     .YYY      0.00000  -0.00000   0.00000  -0.00000  -0.00001
   32 Cr1     .ZZZ      0.00000   0.00000  -0.00001   0.00001   0.00000
   33 Cr1     .XYY      0.00001  -0.00001  -0.00000  -0.00000  -0.00000
   34 Cr1     .XXY      0.00000  -0.00000   0.00000  -0.00000  -0.00001
   35 Cr1     .XXZ      0.00000   0.00000  -0.00001   0.00001   0.00000
   36 Cr1     .XZZ     -0.00001   0.00001  -0.00000   0.00000   0.00000
   37 Cr1     .YZZ      0.00000  -0.00000   0.00000   0.00000  -0.00001
   38 Cr1     .YYZ      0.00000   0.00000  -0.00001   0.00001   0.00000
   39 Cr1     .XYZ     -0.00000  -0.00000   0.00000   0.00000  -0.00000
   40 C2      .S        0.00014   0.00014   0.00003   0.00234   0.00014
   41 C2      .S        0.00044   0.00044   0.00032  -0.00284   0.00044
   42 C2      .X       -0.00006   0.00006  -0.00000   0.00000   0.00000
   43 C2      .Y       -0.00000   0.00000  -0.00000  -0.00000  -0.00006
   44 C2      .Z        0.00041   0.00041  -0.00043  -0.01013   0.00041
   45 C2      .S       -0.00094  -0.00094  -0.00472  -0.00740  -0.00094
   46 C2      .X        0.00078  -0.00078  -0.00000   0.00000   0.00000
   47 C2      .Y       -0.00000   0.00000  -0.00000  -0.00000   0.00078
   48 C2      .Z        0.00155   0.00155  -0.00026  -0.03012   0.00155
   49 C2      .XX       0.00008   0.00008   0.00011  -0.00036   0.00013
   50 C2      .YY       0.00013   0.00013   0.00011  -0.00036   0.00008
   51 C2      .ZZ       0.00010   0.00010   0.00022  -0.00102   0.00010
   52 C2      .XY      -0.00000  -0.00000  -0.00000  -0.00000   0.00000
   53 C2      .XZ       0.00002  -0.00002  -0.00000   0.00000  -0.00000
   54 C2      .YZ      -0.00000   0.00000  -0.00000   0.00000   0.00002
   55 C3      .S        0.00014   0.00014   0.00014   0.00014   0.00234
   56 C3      .S        0.00044   0.00044   0.00044   0.00044  -0.00284
   57 C3      .X       -0.00006   0.00006   0.00000   0.00000   0.00000
   58 C3      .Y        0.00041   0.00041   0.00041   0.00041  -0.01013
   59 C3      .Z       -0.00000  -0.00000   0.00006  -0.00006  -0.00000
   60 C3      .S       -0.00094  -0.00094  -0.00094  -0.00094  -0.00740
   61 C3      .X        0.00078  -0.00078   0.00000   0.00000   0.00000
   62 C3      .Y        0.00155   0.00155   0.00155   0.00155  -0.03012
   63 C3      .Z       -0.00000  -0.00000  -0.00078   0.00078  -0.00000
   64 C3      .XX       0.00008   0.00008   0.00013   0.00013  -0.00036
   65 C3      .YY       0.00010   0.00010   0.00010   0.00010  -0.00102
   66 C3      .ZZ       0.00013   0.00013   0.00008   0.00008  -0.00036
   67 C3      .XY       0.00002  -0.00002  -0.00000   0.00000  -0.00000
   68 C3      .XZ       0.00000   0.00000   0.00000  -0.00000   0.00000
   69 C3      .YZ       0.00000  -0.00000  -0.00002   0.00002   0.00000
   70 C4      .S        0.00014   0.00014   0.00234   0.00003   0.00014
   71 C4      .S        0.00044   0.00044  -0.00284   0.00032   0.00044
   72 C4      .X       -0.00006   0.00006  -0.00000   0.00000   0.00000
   73 C4      .Y        0.00000   0.00000  -0.00000  -0.00000  -0.00006
   74 C4      .Z       -0.00041  -0.00041   0.01013   0.00043  -0.00041
   75 C4      .S       -0.00094  -0.00094  -0.00740  -0.00472  -0.00094
   76 C4      .X        0.00078  -0.00078  -0.00000  -0.00000   0.00000
   77 C4      .Y        0.00000   0.00000  -0.00000  -0.00000   0.00078
   78 C4      .Z       -0.00155  -0.00155   0.03012   0.00026  -0.00155
   79 C4      .XX       0.00008   0.00008  -0.00036   0.00011   0.00013
   80 C4      .YY       0.00013   0.00013  -0.00036   0.00011   0.00008
   81 C4      .ZZ       0.00010   0.00010  -0.00102   0.00022   0.00010
   82 C4      .XY      -0.00000   0.00000  -0.00000  -0.00000   0.00000
   83 C4      .XZ      -0.00002   0.00002   0.00000  -0.00000   0.00000
   84 C4      .YZ       0.00000   0.00000  -0.00000   0.00000  -0.00002
   85 C5      .S        0.00014   0.00014   0.00014   0.00014   0.00003
   86 C5      .S        0.00044   0.00044   0.00044   0.00044   0.00032
   87 C5      .X       -0.00006   0.00006   0.00000   0.00000  -0.00000
   88 C5      .Y       -0.00041  -0.00041  -0.00041  -0.00041   0.00043
   89 C5      .Z       -0.00000  -0.00000   0.00006  -0.00006   0.00000
   90 C5      .S       -0.00094  -0.00094  -0.00094  -0.00094  -0.00472
   91 C5      .X        0.00078  -0.00078  -0.00000   0.00000   0.00000
   92 C5      .Y       -0.00155  -0.00155  -0.00155  -0.00155   0.00026
   93 C5      .Z       -0.00000  -0.00000  -0.00078   0.00078   0.00000
   94 C5      .XX       0.00008   0.00008   0.00013   0.00013   0.00011
   95 C5      .YY       0.00010   0.00010   0.00010   0.00010   0.00022
   96 C5      .ZZ       0.00013   0.00013   0.00008   0.00008   0.00011
   97 C5      .XY      -0.00002   0.00002  -0.00000  -0.00000   0.00000
   98 C5      .XZ       0.00000  -0.00000   0.00000  -0.00000  -0.00000
   99 C5      .YZ      -0.00000  -0.00000   0.00002  -0.00002   0.00000
  100 C6      .S        0.00234   0.00003   0.00014   0.00014   0.00014
  101 C6      .S       -0.00284   0.00032   0.00044   0.00044   0.00044
  102 C6      .X       -0.01013  -0.00043   0.00041   0.00041   0.00041
  103 C6      .Y        0.00000  -0.00000  -0.00000   0.00000  -0.00006
  104 C6      .Z       -0.00000   0.00000   0.00006  -0.00006  -0.00000
  105 C6      .S       -0.00740  -0.00472  -0.00094  -0.00094  -0.00094
  106 C6      .X       -0.03012  -0.00026   0.00155   0.00155   0.00155
  107 C6      .Y        0.00000  -0.00000  -0.00000   0.00000   0.00078
  108 C6      .Z        0.00000  -0.00000  -0.00078   0.00078  -0.00000
  109 C6      .XX      -0.00102   0.00022   0.00010   0.00010   0.00010
  110 C6      .YY      -0.00036   0.00011   0.00013   0.00013   0.00008
  111 C6      .ZZ      -0.00036   0.00011   0.00008   0.00008   0.00013
  112 C6      .XY       0.00000  -0.00000  -0.00000  -0.00000   0.00002
  113 C6      .XZ      -0.00000   0.00000  -0.00002   0.00002  -0.00000
  114 C6      .YZ       0.00000   0.00000  -0.00000   0.00000  -0.00000
  115 C7      .S        0.00003   0.00234   0.00014   0.00014   0.00014
  116 C7      .S        0.00032  -0.00284   0.00044   0.00044   0.00044
  117 C7      .X        0.00043   0.01013  -0.00041  -0.00041  -0.00041
  118 C7      .Y       -0.00000  -0.00000  -0.00000  -0.00000  -0.00006
  119 C7      .Z        0.00000  -0.00000   0.00006  -0.00006   0.00000
  120 C7      .S       -0.00472  -0.00740  -0.00094  -0.00094  -0.00094
  121 C7      .X        0.00026   0.03012  -0.00155  -0.00155  -0.00155
  122 C7      .Y       -0.00000   0.00000  -0.00000  -0.00000   0.00078
  123 C7      .Z        0.00000  -0.00000  -0.00078   0.00078  -0.00000
  124 C7      .XX       0.00022  -0.00102   0.00010   0.00010   0.00010
  125 C7      .YY       0.00011  -0.00036   0.00013   0.00013   0.00008
  126 C7      .ZZ       0.00011  -0.00036   0.00008   0.00008   0.00013
  127 C7      .XY       0.00000   0.00000   0.00000  -0.00000  -0.00002
  128 C7      .XZ      -0.00000   0.00000   0.00002  -0.00002  -0.00000
  129 C7      .YZ       0.00000  -0.00000   0.00000   0.00000  -0.00000
  130 O8      .S        0.00010   0.00010  -0.00010   1.01208   0.00010
  131 O8      .S       -0.00014  -0.00014  -0.00015  -0.03795  -0.00014
  132 O8      .X        0.00005  -0.00005  -0.00000   0.00000  -0.00000
  133 O8      .Y       -0.00000   0.00000  -0.00000  -0.00000   0.00005
  134 O8      .Z        0.00013   0.00013  -0.00001  -0.00191   0.00013
  135 O8      .S       -0.00140  -0.00140   0.00209  -0.02389  -0.00140
  136 O8      .X       -0.00028   0.00028  -0.00000   0.00000  -0.00000
  137 O8      .Y       -0.00000   0.00000   0.00000  -0.00000  -0.00028
  138 O8      .Z        0.00013   0.00013  -0.00037  -0.01044   0.00013
  139 O8      .XX       0.00020   0.00020  -0.00026  -0.01229   0.00020
  140 O8      .YY       0.00020   0.00020  -0.00026  -0.01229   0.00020
  141 O8      .ZZ       0.00018   0.00018  -0.00029  -0.01012   0.00018
  142 O8      .XY       0.00000   0.00000  -0.00000   0.00000  -0.00000
  143 O8      .XZ       0.00003  -0.00003   0.00000  -0.00000   0.00000
  144 O8      .YZ       0.00000  -0.00000   0.00000   0.00000   0.00003
  145 O9      .S        0.00010   0.00010   0.00010   0.00010   1.01208
  146 O9      .S       -0.00014  -0.00014  -0.00014  -0.00014  -0.03795
  147 O9      .X        0.00005  -0.00005  -0.00000   0.00000  -0.00000
  148 O9      .Y        0.00013   0.00013   0.00013   0.00013  -0.00191
  149 O9      .Z        0.00000   0.00000  -0.00005   0.00005   0.00000
  150 O9      .S       -0.00140  -0.00140  -0.00140  -0.00140  -0.02389
  151 O9      .X       -0.00028   0.00028  -0.00000   0.00000  -0.00000
  152 O9      .Y        0.00013   0.00013   0.00013   0.00013  -0.01044
  153 O9      .Z        0.00000   0.00000   0.00028  -0.00028   0.00000
  154 O9      .XX       0.00020   0.00020   0.00020   0.00020  -0.01229
  155 O9      .YY       0.00018   0.00018   0.00018   0.00018  -0.01012
  156 O9      .ZZ       0.00020   0.00020   0.00020   0.00020  -0.01229
  157 O9      .XY       0.00003  -0.00003   0.00000  -0.00000  -0.00000
  158 O9      .XZ      -0.00000   0.00000   0.00000   0.00000  -0.00000
  159 O9      .YZ       0.00000   0.00000  -0.00003   0.00003   0.00000
  160 O10     .S        0.00010   0.00010   1.01208  -0.00010   0.00010
  161 O10     .S       -0.00014  -0.00014  -0.03795  -0.00015  -0.00014
  162 O10     .X        0.00005  -0.00005  -0.00000   0.00000   0.00000
  163 O10     .Y       -0.00000   0.00000  -0.00000  -0.00000   0.00005
  164 O10     .Z       -0.00013  -0.00013   0.00191   0.00001  -0.00013
  165 O10     .S       -0.00140  -0.00140  -0.02389   0.00209  -0.00140
  166 O10     .X       -0.00028   0.00028  -0.00000   0.00000   0.00000
  167 O10     .Y       -0.00000   0.00000  -0.00000  -0.00000  -0.00028
  168 O10     .Z       -0.00013  -0.00013   0.01044   0.00037  -0.00013
  169 O10     .XX       0.00020   0.00020  -0.01229  -0.00026   0.00020
  170 O10     .YY       0.00020   0.00020  -0.01229  -0.00026   0.00020
  171 O10     .ZZ       0.00018   0.00018  -0.01012  -0.00029   0.00018
  172 O10     .XY       0.00000  -0.00000  -0.00000  -0.00000  -0.00000
  173 O10     .XZ      -0.00003   0.00003   0.00000   0.00000   0.00000
  174 O10     .YZ      -0.00000   0.00000   0.00000  -0.00000  -0.00003
  175 O11     .S        0.00010   0.00010   0.00010   0.00010  -0.00010
  176 O11     .S       -0.00014  -0.00014  -0.00014  -0.00014  -0.00015
  177 O11     .X        0.00005  -0.00005   0.00000   0.00000  -0.00000
  178 O11     .Y       -0.00013  -0.00013  -0.00013  -0.00013   0.00001
  179 O11     .Z       -0.00000   0.00000  -0.00005   0.00005  -0.00000
  180 O11     .S       -0.00140  -0.00140  -0.00140  -0.00140   0.00209
  181 O11     .X       -0.00028   0.00028   0.00000   0.00000   0.00000
  182 O11     .Y       -0.00013  -0.00013  -0.00013  -0.00013   0.00037
  183 O11     .Z       -0.00000   0.00000   0.00028  -0.00028  -0.00000
  184 O11     .XX       0.00020   0.00020   0.00020   0.00020  -0.00026
  185 O11     .YY       0.00018   0.00018   0.00018   0.00018  -0.00029
  186 O11     .ZZ       0.00020   0.00020   0.00020   0.00020  -0.00026
  187 O11     .XY      -0.00003   0.00003   0.00000   0.00000  -0.00000
  188 O11     .XZ      -0.00000   0.00000   0.00000  -0.00000   0.00000
  189 O11     .YZ      -0.00000   0.00000   0.00003  -0.00003  -0.00000
  190 O12     .S        1.01208  -0.00010   0.00010   0.00010   0.00010
  191 O12     .S       -0.03795  -0.00015  -0.00014  -0.00014  -0.00014
  192 O12     .X       -0.00191  -0.00001   0.00013   0.00013   0.00013
  193 O12     .Y       -0.00000  -0.00000   0.00000  -0.00000   0.00005
  194 O12     .Z       -0.00000   0.00000  -0.00005   0.00005   0.00000
  195 O12     .S       -0.02389   0.00209  -0.00140  -0.00140  -0.00140
  196 O12     .X       -0.01044  -0.00037   0.00013   0.00013   0.00013
  197 O12     .Y       -0.00000  -0.00000   0.00000   0.00000  -0.00028
  198 O12     .Z        0.00000   0.00000   0.00028  -0.00028   0.00000
  199 O12     .XX      -0.01012  -0.00029   0.00018   0.00018   0.00018
  200 O12     .YY      -0.01229  -0.00026   0.00020   0.00020   0.00020
  201 O12     .ZZ      -0.01229  -0.00026   0.00020   0.00020   0.00020
  202 O12     .XY      -0.00000   0.00000   0.00000   0.00000   0.00003
  203 O12     .XZ       0.00000  -0.00000  -0.00003   0.00003   0.00000
  204 O12     .YZ       0.00000   0.00000  -0.00000  -0.00000   0.00000
  205 O13     .S       -0.00010   1.01208   0.00010   0.00010   0.00010
  206 O13     .S       -0.00015  -0.03795  -0.00014  -0.00014  -0.00014
  207 O13     .X        0.00001   0.00191  -0.00013  -0.00013  -0.00013
  208 O13     .Y       -0.00000  -0.00000  -0.00000   0.00000   0.00005
  209 O13     .Z        0.00000  -0.00000  -0.00005   0.00005   0.00000
  210 O13     .S        0.00209  -0.02389  -0.00140  -0.00140  -0.00140
  211 O13     .X        0.00037   0.01044  -0.00013  -0.00013  -0.00013
  212 O13     .Y        0.00000  -0.00000  -0.00000  -0.00000  -0.00028
  213 O13     .Z        0.00000  -0.00000   0.00028  -0.00028  -0.00000
  214 O13     .XX      -0.00029  -0.01012   0.00018   0.00018   0.00018
  215 O13     .YY      -0.00026  -0.01229   0.00020   0.00020   0.00020
  216 O13     .ZZ      -0.00026  -0.01229   0.00020   0.00020   0.00020
  217 O13     .XY      -0.00000  -0.00000  -0.00000   0.00000  -0.00003
  218 O13     .XZ       0.00000  -0.00000   0.00003  -0.00003   0.00000
  219 O13     .YZ       0.00000  -0.00000   0.00000   0.00000  -0.00000
                          11        12        13        14        15
                           O         O         O         O         O    
     Eigenvalues --  -516.18873-277.34672-277.34672-277.34672-277.34672
    1 Cr1     .S       -0.00019   0.00005   0.00005   0.00005   0.00005
    2 Cr1     .S       -0.00015   0.00368   0.00368   0.00368   0.00368
    3 Cr1     .X        0.00000  -0.00000   0.00000   0.00000  -0.00000
    4 Cr1     .Y       -0.00044  -0.00000   0.00379  -0.00379  -0.00000
    5 Cr1     .Z       -0.00000  -0.00379  -0.00000  -0.00000   0.00379
    6 Cr1     .S        0.00188   0.00803   0.00803   0.00803   0.00803
    7 Cr1     .X       -0.00000   0.00000  -0.00000   0.00000   0.00000
    8 Cr1     .Y        0.00379  -0.00000  -0.00266   0.00266   0.00000
    9 Cr1     .Z       -0.00000   0.00266  -0.00000  -0.00000  -0.00266
   10 Cr1     .S        0.00761   0.08634   0.08634   0.08634   0.08634
   11 Cr1     .X        0.00000  -0.00000   0.00000  -0.00000   0.00000
   12 Cr1     .Y        0.01302  -0.00000   0.06797  -0.06797  -0.00000
   13 Cr1     .Z        0.00000  -0.06797  -0.00000  -0.00000   0.06797
   14 Cr1     .S        0.00357   0.00798   0.00798   0.00798   0.00798
   15 Cr1     .X       -0.00000  -0.00000  -0.00000   0.00000  -0.00000
   16 Cr1     .Y       -0.00262   0.00000  -0.00482   0.00482  -0.00000
   17 Cr1     .Z       -0.00000   0.00482   0.00000   0.00000  -0.00482
   18 Cr1     .XX      -0.00035   0.00020   0.00020   0.00020   0.00020
   19 Cr1     .YY      -0.00166   0.00020   0.00040   0.00040   0.00020
   20 Cr1     .ZZ      -0.00035   0.00040   0.00020   0.00020   0.00040
   21 Cr1     .XY      -0.00000  -0.00000  -0.00000   0.00000   0.00000
   22 Cr1     .XZ      -0.00000   0.00000  -0.00000   0.00000  -0.00000
   23 Cr1     .YZ      -0.00000   0.00000   0.00000  -0.00000   0.00000
   24 Cr1     .XX       0.00167   0.00981   0.00981   0.00981   0.00981
   25 Cr1     .YY      -0.00371   0.00981   0.00733   0.00733   0.00981
   26 Cr1     .ZZ       0.00167   0.00733   0.00981   0.00981   0.00733
   27 Cr1     .XY       0.00000  -0.00000  -0.00000   0.00000   0.00000
   28 Cr1     .XZ      -0.00000   0.00000  -0.00000   0.00000  -0.00000
   29 Cr1     .YZ       0.00000   0.00000  -0.00000  -0.00000   0.00000
   30 Cr1     .XXX      0.00000  -0.00000   0.00000   0.00000   0.00000
   31 Cr1     .YYY      0.00001   0.00000  -0.00021   0.00021  -0.00000
   32 Cr1     .ZZZ      0.00000  -0.00021  -0.00000  -0.00000   0.00021
   33 Cr1     .XYY      0.00000  -0.00000   0.00000   0.00000   0.00000
   34 Cr1     .XXY      0.00001   0.00000  -0.00021   0.00021  -0.00000
   35 Cr1     .XXZ      0.00000  -0.00014  -0.00000  -0.00000   0.00014
   36 Cr1     .XZZ     -0.00000   0.00000  -0.00000  -0.00000  -0.00000
   37 Cr1     .YZZ      0.00001   0.00000  -0.00014   0.00014  -0.00000
   38 Cr1     .YYZ      0.00000  -0.00014  -0.00000  -0.00000   0.00014
   39 Cr1     .XYZ     -0.00000   0.00000   0.00000   0.00000  -0.00000
   40 C2      .S        0.00014   1.01035  -0.00087  -0.00087   0.00053
   41 C2      .S        0.00044   0.00365   0.00323   0.00323  -0.00216
   42 C2      .X        0.00000   0.00000  -0.00000  -0.00000  -0.00000
   43 C2      .Y        0.00006   0.00000  -0.00407   0.00407   0.00000
   44 C2      .Z        0.00041   0.00255  -0.00334  -0.00334   0.00151
   45 C2      .S       -0.00094  -0.00418   0.01450   0.01450  -0.00872
   46 C2      .X        0.00000   0.00000  -0.00000   0.00000  -0.00000
   47 C2      .Y       -0.00078   0.00000  -0.00808   0.00808  -0.00000
   48 C2      .Z        0.00155  -0.00526  -0.00756  -0.00756   0.00484
   49 C2      .XX       0.00013  -0.00740   0.00027   0.00027  -0.00028
   50 C2      .YY       0.00008  -0.00740   0.00034   0.00034  -0.00028
   51 C2      .ZZ       0.00010  -0.00654   0.00027   0.00027  -0.00020
   52 C2      .XY       0.00000   0.00000   0.00000  -0.00000   0.00000
   53 C2      .XZ      -0.00000  -0.00000  -0.00000  -0.00000   0.00000
   54 C2      .YZ      -0.00002   0.00000   0.00002  -0.00002   0.00000
   55 C3      .S        0.00003  -0.00087   0.00053   1.01035  -0.00087
   56 C3      .S        0.00032   0.00323  -0.00216   0.00365   0.00323
   57 C3      .X       -0.00000  -0.00000   0.00000   0.00000  -0.00000
   58 C3      .Y       -0.00043  -0.00334   0.00151   0.00255  -0.00334
   59 C3      .Z       -0.00000   0.00407  -0.00000  -0.00000  -0.00407
   60 C3      .S       -0.00472   0.01450  -0.00872  -0.00418   0.01450
   61 C3      .X       -0.00000  -0.00000   0.00000   0.00000  -0.00000
   62 C3      .Y       -0.00026  -0.00756   0.00484  -0.00526  -0.00756
   63 C3      .Z       -0.00000   0.00808   0.00000   0.00000  -0.00808
   64 C3      .XX       0.00011   0.00027  -0.00028  -0.00740   0.00027
   65 C3      .YY       0.00022   0.00027  -0.00020  -0.00654   0.00027
   66 C3      .ZZ       0.00011   0.00034  -0.00028  -0.00740   0.00034
   67 C3      .XY      -0.00000  -0.00000  -0.00000  -0.00000  -0.00000
   68 C3      .XZ      -0.00000  -0.00000  -0.00000   0.00000   0.00000
   69 C3      .YZ       0.00000  -0.00002  -0.00000  -0.00000   0.00002
   70 C4      .S        0.00014   0.00053  -0.00087  -0.00087   1.01035
   71 C4      .S        0.00044  -0.00216   0.00323   0.00323   0.00365
   72 C4      .X       -0.00000   0.00000  -0.00000   0.00000   0.00000
   73 C4      .Y        0.00006   0.00000  -0.00407   0.00407   0.00000
   74 C4      .Z       -0.00041  -0.00151   0.00334   0.00334  -0.00255
   75 C4      .S       -0.00094  -0.00872   0.01450   0.01450  -0.00418
   76 C4      .X       -0.00000   0.00000  -0.00000   0.00000   0.00000
   77 C4      .Y       -0.00078   0.00000  -0.00808   0.00808   0.00000
   78 C4      .Z       -0.00155  -0.00484   0.00756   0.00756   0.00526
   79 C4      .XX       0.00013  -0.00028   0.00027   0.00027  -0.00740
   80 C4      .YY       0.00008  -0.00028   0.00034   0.00034  -0.00740
   81 C4      .ZZ       0.00010  -0.00020   0.00027   0.00027  -0.00654
   82 C4      .XY       0.00000  -0.00000   0.00000   0.00000   0.00000
   83 C4      .XZ       0.00000  -0.00000   0.00000  -0.00000  -0.00000
   84 C4      .YZ       0.00002  -0.00000  -0.00002   0.00002  -0.00000
   85 C5      .S        0.00234  -0.00087   1.01035   0.00053  -0.00087
   86 C5      .S       -0.00284   0.00323   0.00365  -0.00216   0.00323
   87 C5      .X       -0.00000   0.00000   0.00000   0.00000  -0.00000
   88 C5      .Y        0.01013   0.00334  -0.00255  -0.00151   0.00334
   89 C5      .Z       -0.00000   0.00407  -0.00000   0.00000  -0.00407
   90 C5      .S       -0.00740   0.01450  -0.00418  -0.00872   0.01450
   91 C5      .X       -0.00000   0.00000   0.00000   0.00000  -0.00000
   92 C5      .Y        0.03012   0.00756   0.00526  -0.00484   0.00756
   93 C5      .Z       -0.00000   0.00808  -0.00000   0.00000  -0.00808
   94 C5      .XX      -0.00036   0.00027  -0.00740  -0.00028   0.00027
   95 C5      .YY      -0.00102   0.00027  -0.00654  -0.00020   0.00027
   96 C5      .ZZ      -0.00036   0.00034  -0.00740  -0.00028   0.00034
   97 C5      .XY      -0.00000   0.00000  -0.00000  -0.00000   0.00000
   98 C5      .XZ       0.00000   0.00000  -0.00000   0.00000  -0.00000
   99 C5      .YZ      -0.00000   0.00002   0.00000   0.00000  -0.00002
  100 C6      .S        0.00014  -0.00087  -0.00087  -0.00087  -0.00087
  101 C6      .S        0.00044   0.00323   0.00323   0.00323   0.00323
  102 C6      .X        0.00041  -0.00334  -0.00334  -0.00334  -0.00334
  103 C6      .Y        0.00006   0.00000  -0.00407   0.00407   0.00000
  104 C6      .Z        0.00000   0.00407   0.00000  -0.00000  -0.00407
  105 C6      .S       -0.00094   0.01450   0.01450   0.01450   0.01450
  106 C6      .X        0.00155  -0.00756  -0.00756  -0.00756  -0.00756
  107 C6      .Y       -0.00078   0.00000  -0.00808   0.00808  -0.00000
  108 C6      .Z       -0.00000   0.00808   0.00000  -0.00000  -0.00808
  109 C6      .XX       0.00010   0.00027   0.00027   0.00027   0.00027
  110 C6      .YY       0.00008   0.00027   0.00034   0.00034   0.00027
  111 C6      .ZZ       0.00013   0.00034   0.00027   0.00027   0.00034
  112 C6      .XY      -0.00002   0.00000   0.00002  -0.00002   0.00000
  113 C6      .XZ       0.00000  -0.00002   0.00000  -0.00000   0.00002
  114 C6      .YZ      -0.00000   0.00000  -0.00000  -0.00000  -0.00000
  115 C7      .S        0.00014  -0.00087  -0.00087  -0.00087  -0.00087
  116 C7      .S        0.00044   0.00323   0.00323   0.00323   0.00323
  117 C7      .X       -0.00041   0.00334   0.00334   0.00334   0.00334
  118 C7      .Y        0.00006  -0.00000  -0.00407   0.00407   0.00000
  119 C7      .Z       -0.00000   0.00407  -0.00000  -0.00000  -0.00407
  120 C7      .S       -0.00094   0.01450   0.01450   0.01450   0.01450
  121 C7      .X       -0.00155   0.00756   0.00756   0.00756   0.00756
  122 C7      .Y       -0.00078  -0.00000  -0.00808   0.00808   0.00000
  123 C7      .Z       -0.00000   0.00808  -0.00000   0.00000  -0.00808
  124 C7      .XX       0.00010   0.00027   0.00027   0.00027   0.00027
  125 C7      .YY       0.00008   0.00027   0.00034   0.00034   0.00027
  126 C7      .ZZ       0.00013   0.00034   0.00027   0.00027   0.00034
  127 C7      .XY       0.00002  -0.00000  -0.00002   0.00002   0.00000
  128 C7      .XZ       0.00000   0.00002   0.00000   0.00000  -0.00002
  129 C7      .YZ      -0.00000  -0.00000   0.00000  -0.00000   0.00000
  130 O8      .S        0.00010   0.00511   0.00002   0.00002   0.00026
  131 O8      .S       -0.00014  -0.00920   0.00085   0.00085  -0.00054
  132 O8      .X       -0.00000  -0.00000  -0.00000  -0.00000   0.00000
  133 O8      .Y       -0.00005   0.00000   0.00102  -0.00102   0.00000
  134 O8      .Z        0.00013   0.02629  -0.00006  -0.00006   0.00020
  135 O8      .S       -0.00140  -0.01629  -0.00029  -0.00029  -0.00322
  136 O8      .X       -0.00000  -0.00000  -0.00000   0.00000   0.00000
  137 O8      .Y        0.00028  -0.00000   0.00141  -0.00141   0.00000
  138 O8      .Z        0.00013   0.02744   0.00041   0.00041   0.00065
  139 O8      .XX       0.00020   0.00027   0.00022   0.00022   0.00039
  140 O8      .YY       0.00020   0.00027   0.00021   0.00021   0.00039
  141 O8      .ZZ       0.00018   0.00018   0.00019   0.00019   0.00030
  142 O8      .XY      -0.00000  -0.00000   0.00000  -0.00000  -0.00000
  143 O8      .XZ       0.00000   0.00000   0.00000   0.00000  -0.00000
  144 O8      .YZ      -0.00003   0.00000  -0.00008   0.00008  -0.00000
  145 O9      .S       -0.00010   0.00002   0.00026   0.00511   0.00002
  146 O9      .S       -0.00015   0.00085  -0.00054  -0.00920   0.00085
  147 O9      .X        0.00000  -0.00000  -0.00000   0.00000   0.00000
  148 O9      .Y       -0.00001  -0.00006   0.00020   0.02629  -0.00006
  149 O9      .Z        0.00000  -0.00102  -0.00000  -0.00000   0.00102
  150 O9      .S        0.00209  -0.00029  -0.00322  -0.01629  -0.00029
  151 O9      .X        0.00000  -0.00000  -0.00000   0.00000   0.00000
  152 O9      .Y       -0.00037   0.00041   0.00065   0.02744   0.00041
  153 O9      .Z        0.00000  -0.00141  -0.00000  -0.00000   0.00141
  154 O9      .XX      -0.00026   0.00022   0.00039   0.00027   0.00022
  155 O9      .YY      -0.00029   0.00019   0.00030   0.00018   0.00019
  156 O9      .ZZ      -0.00026   0.00021   0.00039   0.00027   0.00021
  157 O9      .XY       0.00000   0.00000   0.00000  -0.00000   0.00000
  158 O9      .XZ      -0.00000   0.00000   0.00000   0.00000  -0.00000
  159 O9      .YZ      -0.00000   0.00008   0.00000   0.00000  -0.00008
  160 O10     .S        0.00010   0.00026   0.00002   0.00002   0.00511
  161 O10     .S       -0.00014  -0.00054   0.00085   0.00085  -0.00920
  162 O10     .X       -0.00000   0.00000  -0.00000   0.00000   0.00000
  163 O10     .Y       -0.00005   0.00000   0.00102  -0.00102  -0.00000
  164 O10     .Z       -0.00013  -0.00020   0.00006   0.00006  -0.02629
  165 O10     .S       -0.00140  -0.00322  -0.00029  -0.00029  -0.01629
  166 O10     .X       -0.00000  -0.00000   0.00000   0.00000   0.00000
  167 O10     .Y        0.00028   0.00000   0.00141  -0.00141  -0.00000
  168 O10     .Z       -0.00013  -0.00065  -0.00041  -0.00041  -0.02744
  169 O10     .XX       0.00020   0.00039   0.00022   0.00022   0.00027
  170 O10     .YY       0.00020   0.00039   0.00021   0.00021   0.00027
  171 O10     .ZZ       0.00018   0.00030   0.00019   0.00019   0.00018
  172 O10     .XY       0.00000  -0.00000  -0.00000   0.00000  -0.00000
  173 O10     .XZ      -0.00000   0.00000  -0.00000  -0.00000   0.00000
  174 O10     .YZ       0.00003   0.00000   0.00008  -0.00008  -0.00000
  175 O11     .S        1.01208   0.00002   0.00511   0.00026   0.00002
  176 O11     .S       -0.03795   0.00085  -0.00920  -0.00054   0.00085
  177 O11     .X        0.00000  -0.00000  -0.00000   0.00000   0.00000
  178 O11     .Y        0.00191   0.00006  -0.02629  -0.00020   0.00006
  179 O11     .Z        0.00000  -0.00102   0.00000  -0.00000   0.00102
  180 O11     .S       -0.02389  -0.00029  -0.01629  -0.00322  -0.00029
  181 O11     .X        0.00000  -0.00000  -0.00000   0.00000   0.00000
  182 O11     .Y        0.01044  -0.00041  -0.02744  -0.00065  -0.00041
  183 O11     .Z        0.00000  -0.00141  -0.00000  -0.00000   0.00141
  184 O11     .XX      -0.01229   0.00022   0.00027   0.00039   0.00022
  185 O11     .YY      -0.01012   0.00019   0.00018   0.00030   0.00019
  186 O11     .ZZ      -0.01229   0.00021   0.00027   0.00039   0.00021
  187 O11     .XY       0.00000  -0.00000  -0.00000   0.00000   0.00000
  188 O11     .XZ      -0.00000  -0.00000   0.00000  -0.00000   0.00000
  189 O11     .YZ       0.00000  -0.00008   0.00000  -0.00000   0.00008
  190 O12     .S        0.00010   0.00002   0.00002   0.00002   0.00002
  191 O12     .S       -0.00014   0.00085   0.00085   0.00085   0.00085
  192 O12     .X        0.00013  -0.00006  -0.00006  -0.00006  -0.00006
  193 O12     .Y       -0.00005   0.00000   0.00102  -0.00102   0.00000
  194 O12     .Z       -0.00000  -0.00102   0.00000  -0.00000   0.00102
  195 O12     .S       -0.00140  -0.00029  -0.00029  -0.00029  -0.00029
  196 O12     .X        0.00013   0.00041   0.00041   0.00041   0.00041
  197 O12     .Y        0.00028   0.00000   0.00141  -0.00141   0.00000
  198 O12     .Z       -0.00000  -0.00141   0.00000  -0.00000   0.00141
  199 O12     .XX       0.00018   0.00019   0.00019   0.00019   0.00019
  200 O12     .YY       0.00020   0.00022   0.00021   0.00021   0.00022
  201 O12     .ZZ       0.00020   0.00021   0.00022   0.00022   0.00021
  202 O12     .XY      -0.00003  -0.00000  -0.00008   0.00008  -0.00000
  203 O12     .XZ      -0.00000   0.00008  -0.00000   0.00000  -0.00008
  204 O12     .YZ       0.00000  -0.00000   0.00000   0.00000  -0.00000
  205 O13     .S        0.00010   0.00002   0.00002   0.00002   0.00002
  206 O13     .S       -0.00014   0.00085   0.00085   0.00085   0.00085
  207 O13     .X       -0.00013   0.00006   0.00006   0.00006   0.00006
  208 O13     .Y       -0.00005   0.00000   0.00102  -0.00102  -0.00000
  209 O13     .Z        0.00000  -0.00102   0.00000  -0.00000   0.00102
  210 O13     .S       -0.00140  -0.00029  -0.00029  -0.00029  -0.00029
  211 O13     .X       -0.00013  -0.00041  -0.00041  -0.00041  -0.00041
  212 O13     .Y        0.00028   0.00000   0.00141  -0.00141   0.00000
  213 O13     .Z        0.00000  -0.00141   0.00000  -0.00000   0.00141
  214 O13     .XX       0.00018   0.00019   0.00019   0.00019   0.00019
  215 O13     .YY       0.00020   0.00022   0.00021   0.00021   0.00022
  216 O13     .ZZ       0.00020   0.00021   0.00022   0.00022   0.00021
  217 O13     .XY       0.00003  -0.00000   0.00008  -0.00008   0.00000
  218 O13     .XZ      -0.00000  -0.00008  -0.00000  -0.00000   0.00008
  219 O13     .YZ      -0.00000   0.00000   0.00000  -0.00000  -0.00000
                          16        17        18        19        20
                           O         O         O         O         O    
     Eigenvalues --  -277.34672-277.34672-110.47054 -51.33817 -51.33817
    1 Cr1     .S        0.00005   0.00005  -0.07514  -0.00000  -0.00000
    2 Cr1     .S        0.00368   0.00368  -0.20254   0.00000   0.00000
    3 Cr1     .X        0.00379  -0.00379   0.00000  -0.00000  -0.00000
    4 Cr1     .Y       -0.00000   0.00000   0.00000  -0.00000  -0.30935
    5 Cr1     .Z       -0.00000   0.00000   0.00000  -0.30935   0.00000
    6 Cr1     .S        0.00803   0.00803   1.15382   0.00000   0.00000
    7 Cr1     .X       -0.00266   0.00266   0.00000  -0.00000  -0.00000
    8 Cr1     .Y        0.00000   0.00000  -0.00000   0.00000   1.09110
    9 Cr1     .Z        0.00000  -0.00000  -0.00000   1.09110   0.00000
   10 Cr1     .S        0.08634   0.08634   0.07321   0.00000   0.00000
   11 Cr1     .X        0.06797  -0.06797   0.00000   0.00000  -0.00000
   12 Cr1     .Y        0.00000   0.00000   0.00000  -0.00000   0.01659
   13 Cr1     .Z       -0.00000  -0.00000   0.00000   0.01659   0.00000
   14 Cr1     .S        0.00798   0.00798   0.03242   0.00000   0.00000
   15 Cr1     .X       -0.00482   0.00482  -0.00000   0.00000  -0.00000
   16 Cr1     .Y       -0.00000  -0.00000  -0.00000   0.00000  -0.00894
   17 Cr1     .Z        0.00000   0.00000  -0.00000  -0.00894  -0.00000
   18 Cr1     .XX       0.00040   0.00040   0.00644   0.00000   0.00000
   19 Cr1     .YY       0.00020   0.00020   0.00644   0.00000  -0.00000
   20 Cr1     .ZZ       0.00020   0.00020   0.00644  -0.00000   0.00000
   21 Cr1     .XY      -0.00000   0.00000   0.00000   0.00000   0.00000
   22 Cr1     .XZ      -0.00000  -0.00000   0.00000  -0.00000  -0.00000
   23 Cr1     .YZ      -0.00000  -0.00000  -0.00000   0.00000  -0.00000
   24 Cr1     .XX       0.00733   0.00733   0.00999   0.00000   0.00000
   25 Cr1     .YY       0.00981   0.00981   0.00999   0.00000  -0.00000
   26 Cr1     .ZZ       0.00981   0.00981   0.00999  -0.00000   0.00000
   27 Cr1     .XY      -0.00000   0.00000   0.00000   0.00000   0.00000
   28 Cr1     .XZ      -0.00000  -0.00000   0.00000  -0.00000  -0.00000
   29 Cr1     .YZ      -0.00000  -0.00000  -0.00000   0.00000  -0.00000
   30 Cr1     .XXX      0.00005  -0.00005  -0.00000   0.00000  -0.00000
   31 Cr1     .YYY     -0.00000  -0.00000  -0.00000  -0.00000  -0.00004
   32 Cr1     .ZZZ     -0.00000   0.00000   0.00000   0.00004   0.00000
   33 Cr1     .XYY      0.00014  -0.00014   0.00000   0.00000  -0.00000
   34 Cr1     .XXY     -0.00000  -0.00000  -0.00000  -0.00000  -0.00004
   35 Cr1     .XXZ     -0.00000   0.00000   0.00000   0.00003   0.00000
   36 Cr1     .XZZ     -0.00014   0.00014  -0.00000  -0.00000   0.00000
   37 Cr1     .YZZ     -0.00000  -0.00000  -0.00000  -0.00000  -0.00003
   38 Cr1     .YYZ     -0.00000   0.00000   0.00000   0.00003   0.00000
   39 Cr1     .XYZ      0.00000   0.00000   0.00000  -0.00000   0.00000
   40 C2      .S       -0.00087  -0.00087  -0.00494   0.00784   0.00000
   41 C2      .S        0.00323   0.00323   0.01504  -0.01652  -0.00000
   42 C2      .X       -0.00407   0.00407   0.00000  -0.00000   0.00000
   43 C2      .Y        0.00000  -0.00000  -0.00000  -0.00000  -0.00798
   44 C2      .Z       -0.00334  -0.00334  -0.04263   0.04284   0.00000
   45 C2      .S        0.01450   0.01450   0.00591  -0.02658  -0.00000
   46 C2      .X       -0.00808   0.00808   0.00000  -0.00000   0.00000
   47 C2      .Y       -0.00000  -0.00000  -0.00000  -0.00000  -0.01102
   48 C2      .Z       -0.00756  -0.00756  -0.05984   0.06914  -0.00000
   49 C2      .XX       0.00034   0.00034   0.00247  -0.00235  -0.00000
   50 C2      .YY       0.00027   0.00027   0.00247  -0.00235  -0.00000
   51 C2      .ZZ       0.00027   0.00027   0.00192  -0.00236  -0.00000
   52 C2      .XY       0.00000   0.00000   0.00000  -0.00000   0.00000
   53 C2      .XZ       0.00002  -0.00002  -0.00000   0.00000  -0.00000
   54 C2      .YZ       0.00000   0.00000  -0.00000   0.00000  -0.00000
   55 C3      .S       -0.00087  -0.00087  -0.00494  -0.00000   0.00784
   56 C3      .S        0.00323   0.00323   0.01504   0.00000  -0.01652
   57 C3      .X       -0.00407   0.00407   0.00000   0.00000   0.00000
   58 C3      .Y       -0.00334  -0.00334  -0.04263  -0.00000   0.04284
   59 C3      .Z       -0.00000   0.00000  -0.00000  -0.00798  -0.00000
   60 C3      .S        0.01450   0.01450   0.00591   0.00000  -0.02658
   61 C3      .X       -0.00808   0.00808  -0.00000  -0.00000   0.00000
   62 C3      .Y       -0.00756  -0.00756  -0.05984  -0.00000   0.06914
   63 C3      .Z        0.00000   0.00000  -0.00000  -0.01102  -0.00000
   64 C3      .XX       0.00034   0.00034   0.00247   0.00000  -0.00235
   65 C3      .YY       0.00027   0.00027   0.00192   0.00000  -0.00236
   66 C3      .ZZ       0.00027   0.00027   0.00247   0.00000  -0.00235
   67 C3      .XY       0.00002  -0.00002  -0.00000   0.00000  -0.00000
   68 C3      .XZ      -0.00000  -0.00000   0.00000  -0.00000  -0.00000
   69 C3      .YZ      -0.00000   0.00000  -0.00000  -0.00000  -0.00000
   70 C4      .S       -0.00087  -0.00087  -0.00494  -0.00784  -0.00000
   71 C4      .S        0.00323   0.00323   0.01504   0.01652   0.00000
   72 C4      .X       -0.00407   0.00407   0.00000   0.00000  -0.00000
   73 C4      .Y        0.00000   0.00000  -0.00000  -0.00000  -0.00798
   74 C4      .Z        0.00334   0.00334   0.04263   0.04284   0.00000
   75 C4      .S        0.01450   0.01450   0.00591   0.02658   0.00000
   76 C4      .X       -0.00808   0.00808  -0.00000  -0.00000   0.00000
   77 C4      .Y       -0.00000  -0.00000  -0.00000   0.00000  -0.01102
   78 C4      .Z        0.00756   0.00756   0.05984   0.06914   0.00000
   79 C4      .XX       0.00034   0.00034   0.00247   0.00235   0.00000
   80 C4      .YY       0.00027   0.00027   0.00247   0.00235   0.00000
   81 C4      .ZZ       0.00027   0.00027   0.00192   0.00236   0.00000
   82 C4      .XY      -0.00000   0.00000   0.00000   0.00000   0.00000
   83 C4      .XZ      -0.00002   0.00002   0.00000  -0.00000   0.00000
   84 C4      .YZ      -0.00000  -0.00000   0.00000  -0.00000   0.00000
   85 C5      .S       -0.00087  -0.00087  -0.00494  -0.00000  -0.00784
   86 C5      .S        0.00323   0.00323   0.01504   0.00000   0.01652
   87 C5      .X       -0.00407   0.00407  -0.00000  -0.00000   0.00000
   88 C5      .Y        0.00334   0.00334   0.04263   0.00000   0.04284
   89 C5      .Z       -0.00000  -0.00000  -0.00000  -0.00798  -0.00000
   90 C5      .S        0.01450   0.01450   0.00591   0.00000   0.02658
   91 C5      .X       -0.00808   0.00808   0.00000  -0.00000   0.00000
   92 C5      .Y        0.00756   0.00756   0.05984   0.00000   0.06914
   93 C5      .Z        0.00000  -0.00000  -0.00000  -0.01102  -0.00000
   94 C5      .XX       0.00034   0.00034   0.00247   0.00000   0.00235
   95 C5      .YY       0.00027   0.00027   0.00192   0.00000   0.00236
   96 C5      .ZZ       0.00027   0.00027   0.00247   0.00000   0.00235
   97 C5      .XY      -0.00002   0.00002   0.00000  -0.00000   0.00000
   98 C5      .XZ       0.00000  -0.00000  -0.00000   0.00000  -0.00000
   99 C5      .YZ       0.00000   0.00000   0.00000   0.00000   0.00000
  100 C6      .S        0.00053   1.01035  -0.00494  -0.00000  -0.00000
  101 C6      .S       -0.00216   0.00365   0.01504   0.00000   0.00000
  102 C6      .X        0.00151   0.00255  -0.04263  -0.00000  -0.00000
  103 C6      .Y        0.00000   0.00000  -0.00000  -0.00000  -0.00798
  104 C6      .Z        0.00000   0.00000  -0.00000  -0.00798  -0.00000
  105 C6      .S       -0.00872  -0.00418   0.00591   0.00000   0.00000
  106 C6      .X        0.00484  -0.00526  -0.05984  -0.00000  -0.00000
  107 C6      .Y       -0.00000  -0.00000  -0.00000  -0.00000  -0.01102
  108 C6      .Z        0.00000   0.00000  -0.00000  -0.01102  -0.00000
  109 C6      .XX      -0.00020  -0.00654   0.00192   0.00000   0.00000
  110 C6      .YY      -0.00028  -0.00740   0.00247   0.00000   0.00000
  111 C6      .ZZ      -0.00028  -0.00740   0.00247   0.00000   0.00000
  112 C6      .XY       0.00000   0.00000  -0.00000   0.00000  -0.00000
  113 C6      .XZ      -0.00000  -0.00000  -0.00000  -0.00000  -0.00000
  114 C6      .YZ      -0.00000  -0.00000  -0.00000  -0.00000   0.00000
  115 C7      .S        1.01035   0.00053  -0.00494  -0.00000  -0.00000
  116 C7      .S        0.00365  -0.00216   0.01504   0.00000   0.00000
  117 C7      .X       -0.00255  -0.00151   0.04263   0.00000   0.00000
  118 C7      .Y       -0.00000   0.00000  -0.00000  -0.00000  -0.00798
  119 C7      .Z       -0.00000  -0.00000  -0.00000  -0.00798  -0.00000
  120 C7      .S       -0.00418  -0.00872   0.00591   0.00000   0.00000
  121 C7      .X        0.00526  -0.00484   0.05984   0.00000   0.00000
  122 C7      .Y       -0.00000  -0.00000  -0.00000  -0.00000  -0.01102
  123 C7      .Z        0.00000   0.00000  -0.00000  -0.01102  -0.00000
  124 C7      .XX      -0.00654  -0.00020   0.00192   0.00000   0.00000
  125 C7      .YY      -0.00740  -0.00028   0.00247   0.00000   0.00000
  126 C7      .ZZ      -0.00740  -0.00028   0.00247   0.00000   0.00000
  127 C7      .XY       0.00000  -0.00000   0.00000  -0.00000   0.00000
  128 C7      .XZ       0.00000  -0.00000   0.00000   0.00000   0.00000
  129 C7      .YZ       0.00000   0.00000   0.00000   0.00000  -0.00000
  130 O8      .S        0.00002   0.00002  -0.00194   0.00172  -0.00000
  131 O8      .S        0.00085   0.00085   0.02139  -0.01840  -0.00000
  132 O8      .X        0.00102  -0.00102   0.00000  -0.00000   0.00000
  133 O8      .Y        0.00000  -0.00000   0.00000   0.00000   0.00310
  134 O8      .Z       -0.00006  -0.00006  -0.00581   0.00377  -0.00000
  135 O8      .S       -0.00029  -0.00029   0.01750  -0.02128   0.00000
  136 O8      .X        0.00141  -0.00141   0.00000  -0.00000   0.00000
  137 O8      .Y        0.00000   0.00000   0.00000   0.00000   0.00302
  138 O8      .Z        0.00041   0.00041  -0.00537   0.00459  -0.00000
  139 O8      .XX       0.00021   0.00021   0.00106  -0.00043  -0.00000
  140 O8      .YY       0.00022   0.00022   0.00106  -0.00043  -0.00000
  141 O8      .ZZ       0.00019   0.00019   0.00088  -0.00040  -0.00000
  142 O8      .XY      -0.00000   0.00000  -0.00000  -0.00000  -0.00000
  143 O8      .XZ      -0.00008   0.00008  -0.00000  -0.00000   0.00000
  144 O8      .YZ      -0.00000   0.00000  -0.00000  -0.00000   0.00003
  145 O9      .S        0.00002   0.00002  -0.00194  -0.00000   0.00172
  146 O9      .S        0.00085   0.00085   0.02139   0.00000  -0.01840
  147 O9      .X        0.00102  -0.00102   0.00000  -0.00000   0.00000
  148 O9      .Y       -0.00006  -0.00006  -0.00581  -0.00000   0.00377
  149 O9      .Z        0.00000  -0.00000   0.00000   0.00310   0.00000
  150 O9      .S       -0.00029  -0.00029   0.01750   0.00000  -0.02128
  151 O9      .X        0.00141  -0.00141   0.00000  -0.00000  -0.00000
  152 O9      .Y        0.00041   0.00041  -0.00537  -0.00000   0.00459
  153 O9      .Z        0.00000  -0.00000   0.00000   0.00302   0.00000
  154 O9      .XX       0.00021   0.00021   0.00106  -0.00000  -0.00043
  155 O9      .YY       0.00019   0.00019   0.00088  -0.00000  -0.00040
  156 O9      .ZZ       0.00022   0.00022   0.00106  -0.00000  -0.00043
  157 O9      .XY      -0.00008   0.00008  -0.00000  -0.00000   0.00000
  158 O9      .XZ       0.00000   0.00000   0.00000  -0.00000  -0.00000
  159 O9      .YZ       0.00000   0.00000  -0.00000   0.00003  -0.00000
  160 O10     .S        0.00002   0.00002  -0.00194  -0.00172  -0.00000
  161 O10     .S        0.00085   0.00085   0.02139   0.01840   0.00000
  162 O10     .X        0.00102  -0.00102   0.00000   0.00000   0.00000
  163 O10     .Y       -0.00000  -0.00000   0.00000   0.00000   0.00310
  164 O10     .Z        0.00006   0.00006   0.00581   0.00377   0.00000
  165 O10     .S       -0.00029  -0.00029   0.01750   0.02128   0.00000
  166 O10     .X        0.00141  -0.00141   0.00000   0.00000   0.00000
  167 O10     .Y       -0.00000  -0.00000   0.00000  -0.00000   0.00302
  168 O10     .Z       -0.00041  -0.00041   0.00537   0.00459  -0.00000
  169 O10     .XX       0.00021   0.00021   0.00106   0.00043   0.00000
  170 O10     .YY       0.00022   0.00022   0.00106   0.00043   0.00000
  171 O10     .ZZ       0.00019   0.00019   0.00088   0.00040   0.00000
  172 O10     .XY       0.00000  -0.00000  -0.00000  -0.00000  -0.00000
  173 O10     .XZ       0.00008  -0.00008   0.00000   0.00000  -0.00000
  174 O10     .YZ       0.00000  -0.00000   0.00000  -0.00000  -0.00003
  175 O11     .S        0.00002   0.00002  -0.00194  -0.00000  -0.00172
  176 O11     .S        0.00085   0.00085   0.02139   0.00000   0.01840
  177 O11     .X        0.00102  -0.00102   0.00000   0.00000   0.00000
  178 O11     .Y        0.00006   0.00006   0.00581   0.00000   0.00377
  179 O11     .Z       -0.00000  -0.00000   0.00000   0.00310   0.00000
  180 O11     .S       -0.00029  -0.00029   0.01750   0.00000   0.02128
  181 O11     .X        0.00141  -0.00141   0.00000   0.00000   0.00000
  182 O11     .Y       -0.00041  -0.00041   0.00537   0.00000   0.00459
  183 O11     .Z       -0.00000  -0.00000   0.00000   0.00302   0.00000
  184 O11     .XX       0.00021   0.00021   0.00106  -0.00000   0.00043
  185 O11     .YY       0.00019   0.00019   0.00088  -0.00000   0.00040
  186 O11     .ZZ       0.00022   0.00022   0.00106  -0.00000   0.00043
  187 O11     .XY       0.00008  -0.00008  -0.00000   0.00000   0.00000
  188 O11     .XZ      -0.00000   0.00000   0.00000   0.00000  -0.00000
  189 O11     .YZ      -0.00000  -0.00000   0.00000  -0.00003   0.00000
  190 O12     .S        0.00026   0.00511  -0.00194  -0.00000  -0.00000
  191 O12     .S       -0.00054  -0.00920   0.02139   0.00000   0.00000
  192 O12     .X        0.00020   0.02629  -0.00581  -0.00000  -0.00000
  193 O12     .Y        0.00000   0.00000   0.00000   0.00000   0.00310
  194 O12     .Z        0.00000   0.00000   0.00000   0.00310   0.00000
  195 O12     .S       -0.00322  -0.01629   0.01750   0.00000   0.00000
  196 O12     .X        0.00065   0.02744  -0.00537  -0.00000  -0.00000
  197 O12     .Y        0.00000   0.00000   0.00000   0.00000   0.00302
  198 O12     .Z        0.00000   0.00000   0.00000   0.00302   0.00000
  199 O12     .XX       0.00030   0.00018   0.00088  -0.00000  -0.00000
  200 O12     .YY       0.00039   0.00027   0.00106  -0.00000  -0.00000
  201 O12     .ZZ       0.00039   0.00027   0.00106  -0.00000  -0.00000
  202 O12     .XY      -0.00000  -0.00000  -0.00000   0.00000   0.00003
  203 O12     .XZ      -0.00000  -0.00000  -0.00000   0.00003  -0.00000
  204 O12     .YZ       0.00000  -0.00000   0.00000  -0.00000   0.00000
  205 O13     .S        0.00511   0.00026  -0.00194  -0.00000  -0.00000
  206 O13     .S       -0.00920  -0.00054   0.02139   0.00000   0.00000
  207 O13     .X       -0.02629  -0.00020   0.00581   0.00000   0.00000
  208 O13     .Y       -0.00000   0.00000   0.00000   0.00000   0.00310
  209 O13     .Z       -0.00000   0.00000   0.00000   0.00310   0.00000
  210 O13     .S       -0.01629  -0.00322   0.01750   0.00000   0.00000
  211 O13     .X       -0.02744  -0.00065   0.00537   0.00000   0.00000
  212 O13     .Y       -0.00000   0.00000   0.00000   0.00000   0.00302
  213 O13     .Z       -0.00000  -0.00000   0.00000   0.00302   0.00000
  214 O13     .XX       0.00018   0.00030   0.00088  -0.00000  -0.00000
  215 O13     .YY       0.00027   0.00039   0.00106  -0.00000  -0.00000
  216 O13     .ZZ       0.00027   0.00039   0.00106  -0.00000  -0.00000
  217 O13     .XY      -0.00000   0.00000   0.00000  -0.00000  -0.00003
  218 O13     .XZ      -0.00000  -0.00000   0.00000  -0.00003   0.00000
  219 O13     .YZ      -0.00000  -0.00000  -0.00000   0.00000   0.00000
                          21        22        23        24        25
                           O         O         O         O         O    
     Eigenvalues --   -51.33817 -34.22205 -34.22205 -34.22205 -34.22205
    1 Cr1     .S       -0.00000  -0.00007  -0.00007  -0.00007  -0.00007
    2 Cr1     .S        0.00000   0.00509   0.00509   0.00509   0.00509
    3 Cr1     .X       -0.30935  -0.00586   0.00586   0.00000  -0.00000
    4 Cr1     .Y       -0.00000   0.00000  -0.00000   0.00586  -0.00586
    5 Cr1     .Z       -0.00000   0.00000   0.00000   0.00000   0.00000
    6 Cr1     .S        0.00000   0.01012   0.01012   0.01012   0.01012
    7 Cr1     .X        1.09110  -0.00058   0.00058   0.00000   0.00000
    8 Cr1     .Y        0.00000   0.00000   0.00000   0.00058  -0.00058
    9 Cr1     .Z        0.00000   0.00000   0.00000   0.00000   0.00000
   10 Cr1     .S        0.00000   0.09703   0.09703   0.09703   0.09703
   11 Cr1     .X        0.01659  -0.12049   0.12049   0.00000   0.00000
   12 Cr1     .Y        0.00000   0.00000   0.00000   0.12049  -0.12049
   13 Cr1     .Z       -0.00000   0.00000   0.00000   0.00000   0.00000
   14 Cr1     .S        0.00000   0.04033   0.04033   0.04033   0.04033
   15 Cr1     .X       -0.00894   0.02160  -0.02160  -0.00000  -0.00000
   16 Cr1     .Y       -0.00000  -0.00000  -0.00000  -0.02160   0.02160
   17 Cr1     .Z        0.00000  -0.00000  -0.00000  -0.00000  -0.00000
   18 Cr1     .XX      -0.00000   0.01216   0.01216  -0.00901  -0.00901
   19 Cr1     .YY       0.00000  -0.00901  -0.00901   0.01216   0.01216
   20 Cr1     .ZZ       0.00000  -0.00901  -0.00901  -0.00901  -0.00901
   21 Cr1     .XY       0.00000  -0.00000   0.00000  -0.00000   0.00000
   22 Cr1     .XZ       0.00000  -0.00000  -0.00000   0.00000  -0.00000
   23 Cr1     .YZ      -0.00000  -0.00000  -0.00000  -0.00000   0.00000
   24 Cr1     .XX      -0.00000   0.00030   0.00030   0.00617   0.00617
   25 Cr1     .YY       0.00000   0.00617   0.00617   0.00030   0.00030
   26 Cr1     .ZZ       0.00000   0.00617   0.00617   0.00617   0.00617
   27 Cr1     .XY       0.00000  -0.00000  -0.00000   0.00000   0.00000
   28 Cr1     .XZ       0.00000  -0.00000   0.00000  -0.00000   0.00000
   29 Cr1     .YZ      -0.00000  -0.00000  -0.00000  -0.00000   0.00000
   30 Cr1     .XXX      0.00001  -0.00051   0.00051   0.00000  -0.00000
   31 Cr1     .YYY     -0.00000  -0.00000  -0.00000  -0.00203   0.00203
   32 Cr1     .ZZZ      0.00000  -0.00000   0.00000   0.00000   0.00000
   33 Cr1     .XYY      0.00003  -0.00136   0.00136   0.00000   0.00000
   34 Cr1     .XXY     -0.00000  -0.00000  -0.00000  -0.00204   0.00204
   35 Cr1     .XXZ      0.00000  -0.00000   0.00000   0.00000  -0.00000
   36 Cr1     .XZZ     -0.00003   0.00136  -0.00136  -0.00000  -0.00000
   37 Cr1     .YZZ     -0.00000  -0.00000  -0.00000  -0.00136   0.00136
   38 Cr1     .YYZ      0.00000  -0.00000   0.00000   0.00000  -0.00000
   39 Cr1     .XYZ     -0.00000   0.00000   0.00000   0.00000  -0.00000
   40 C2      .S       -0.00000   0.00007   0.00007   0.00007   0.00007
   41 C2      .S       -0.00000   0.00750   0.00750   0.00750   0.00750
   42 C2      .X       -0.00798   0.00396  -0.00396   0.00000   0.00000
   43 C2      .Y       -0.00000  -0.00000   0.00000  -0.00396   0.00396
   44 C2      .Z        0.00000  -0.00333  -0.00333  -0.00333  -0.00333
   45 C2      .S        0.00000   0.00381   0.00381   0.00381   0.00381
   46 C2      .X       -0.01102   0.00462  -0.00462  -0.00000  -0.00000
   47 C2      .Y       -0.00000  -0.00000  -0.00000  -0.00462   0.00462
   48 C2      .Z       -0.00000   0.00848   0.00848   0.00848   0.00848
   49 C2      .XX      -0.00000   0.00090   0.00090   0.00102   0.00102
   50 C2      .YY      -0.00000   0.00102   0.00102   0.00090   0.00090
   51 C2      .ZZ      -0.00000   0.00071   0.00071   0.00071   0.00071
   52 C2      .XY       0.00000  -0.00000   0.00000  -0.00000  -0.00000
   53 C2      .XZ      -0.00000  -0.00031   0.00031   0.00000  -0.00000
   54 C2      .YZ      -0.00000  -0.00000  -0.00000   0.00031  -0.00031
   55 C3      .S        0.00000   0.00007   0.00007   0.00089  -0.04065
   56 C3      .S       -0.00000   0.00750   0.00750  -0.00454   0.24327
   57 C3      .X       -0.00798   0.00396  -0.00396  -0.00000  -0.00000
   58 C3      .Y        0.00000  -0.00333  -0.00333   0.00198   0.33151
   59 C3      .Z        0.00000  -0.00000  -0.00000   0.00000  -0.00000
   60 C3      .S       -0.00000   0.00381   0.00381  -0.03181   0.02458
   61 C3      .X       -0.01102   0.00462  -0.00462  -0.00000  -0.00000
   62 C3      .Y       -0.00000   0.00848   0.00848  -0.00765  -0.06619
   63 C3      .Z       -0.00000  -0.00000  -0.00000  -0.00000  -0.00000
   64 C3      .XX      -0.00000   0.00090   0.00090   0.00001  -0.02593
   65 C3      .YY       0.00000   0.00071   0.00071   0.00025   0.02709
   66 C3      .ZZ      -0.00000   0.00102   0.00102   0.00001  -0.02593
   67 C3      .XY      -0.00000  -0.00031   0.00031   0.00000  -0.00000
   68 C3      .XZ      -0.00000   0.00000  -0.00000   0.00000  -0.00000
   69 C3      .YZ       0.00000  -0.00000  -0.00000   0.00000   0.00000
   70 C4      .S       -0.00000   0.00007   0.00007   0.00007   0.00007
   71 C4      .S       -0.00000   0.00750   0.00750   0.00750   0.00750
   72 C4      .X       -0.00798   0.00396  -0.00396   0.00000  -0.00000
   73 C4      .Y        0.00000   0.00000  -0.00000  -0.00396   0.00396
   74 C4      .Z       -0.00000   0.00333   0.00333   0.00333   0.00333
   75 C4      .S       -0.00000   0.00381   0.00381   0.00381   0.00381
   76 C4      .X       -0.01102   0.00462  -0.00462  -0.00000  -0.00000
   77 C4      .Y       -0.00000  -0.00000  -0.00000  -0.00462   0.00462
   78 C4      .Z        0.00000  -0.00848  -0.00848  -0.00848  -0.00848
[...]
   41 C2      .S        0.02463   0.02463   0.12045   0.02463   0.79856
   42 C2      .X        0.02303   0.00000   0.00000  -0.00000   0.00000
   43 C2      .Y        0.00000   0.02303  -0.00000  -0.02303   0.00000
   44 C2      .Z       -0.03327  -0.03327   0.02918  -0.03327   0.05049
   45 C2      .S       -0.00984  -0.00984  -0.00232  -0.00984  -4.53941
   46 C2      .X       -0.12063  -0.00000   0.00000   0.00000  -0.00000
   47 C2      .Y        0.00000  -0.12063   0.00000   0.12063  -0.00000
   48 C2      .Z       -0.03221  -0.03221   0.78062  -0.03221   6.00238
   49 C2      .XX       0.00587   0.01137   0.02205   0.01137   0.25277
   50 C2      .YY       0.01137   0.00587   0.02205   0.00587   0.25277
   51 C2      .ZZ       0.02928   0.02928  -0.04101   0.02928   0.02123
   52 C2      .XY       0.00000   0.00000   0.00000   0.00000  -0.00000
   53 C2      .XZ       0.01241   0.00000   0.00000  -0.00000  -0.00000
   54 C2      .YZ       0.00000   0.01241   0.00000  -0.01241  -0.00000
   55 C3      .S        0.00146  -0.32496   0.00146   0.02279   0.17449
   56 C3      .S        0.02463   1.35781   0.02463   0.12045   0.79856
   57 C3      .X        0.02303  -0.00000  -0.00000  -0.00000  -0.00000
   58 C3      .Y       -0.03327  -0.58200  -0.03327   0.02918   0.05049
   59 C3      .Z       -0.00000   0.00000  -0.02303  -0.00000   0.00000
   60 C3      .S       -0.00984  -0.20023  -0.00984  -0.00232  -4.53941
   61 C3      .X       -0.12063  -0.00000   0.00000   0.00000  -0.00000
   62 C3      .Y       -0.03221  -1.24132  -0.03221   0.78062   6.00238
   63 C3      .Z        0.00000   0.00000   0.12063   0.00000   0.00000
   64 C3      .XX       0.00587  -0.62925   0.01137   0.02205   0.25277
   65 C3      .YY       0.02928  -2.63021   0.02928  -0.04101   0.02123
   66 C3      .ZZ       0.01137  -0.62925   0.00587   0.02205   0.25277
   67 C3      .XY       0.01241  -0.00000   0.00000   0.00000  -0.00000
   68 C3      .XZ      -0.00000   0.00000  -0.00000  -0.00000   0.00000
   69 C3      .YZ       0.00000   0.00000  -0.01241   0.00000   0.00000
   70 C4      .S        0.00146   0.00146  -0.32496   0.00146   0.17449
   71 C4      .S        0.02463   0.02463   1.35781   0.02463   0.79856
   72 C4      .X        0.02303   0.00000  -0.00000  -0.00000  -0.00000
   73 C4      .Y        0.00000   0.02303   0.00000  -0.02303   0.00000
   74 C4      .Z        0.03327   0.03327   0.58200   0.03327  -0.05049
   75 C4      .S       -0.00984  -0.00984  -0.20023  -0.00984  -4.53941
   76 C4      .X       -0.12063  -0.00000   0.00000   0.00000  -0.00000
   77 C4      .Y        0.00000  -0.12063   0.00000   0.12063  -0.00000
   78 C4      .Z        0.03221   0.03221   1.24132   0.03221  -6.00238
   79 C4      .XX       0.00587   0.01137  -0.62925   0.01137   0.25277
   80 C4      .YY       0.01137   0.00587  -0.62925   0.00587   0.25277
   81 C4      .ZZ       0.02928   0.02928  -2.63021   0.02928   0.02123
   82 C4      .XY      -0.00000   0.00000  -0.00000  -0.00000  -0.00000
   83 C4      .XZ      -0.01241  -0.00000  -0.00000  -0.00000   0.00000
   84 C4      .YZ       0.00000  -0.01241   0.00000   0.01241   0.00000
   85 C5      .S        0.00146   0.02279   0.00146  -0.32496   0.17449
   86 C5      .S        0.02463   0.12045   0.02463   1.35781   0.79856
   87 C5      .X        0.02303  -0.00000  -0.00000  -0.00000  -0.00000
   88 C5      .Y        0.03327  -0.02918   0.03327   0.58200  -0.05049
   89 C5      .Z       -0.00000  -0.00000  -0.02303   0.00000   0.00000
   90 C5      .S       -0.00984  -0.00232  -0.00984  -0.20023  -4.53941
   91 C5      .X       -0.12063  -0.00000   0.00000  -0.00000  -0.00000
   92 C5      .Y        0.03221  -0.78062   0.03221   1.24132  -6.00238
   93 C5      .Z        0.00000   0.00000   0.12063   0.00000   0.00000
   94 C5      .XX       0.00587   0.02205   0.01137  -0.62925   0.25277
   95 C5      .YY       0.02928  -0.04101   0.02928  -2.63021   0.02123
   96 C5      .ZZ       0.01137   0.02205   0.00587  -0.62925   0.25277
   97 C5      .XY      -0.01241  -0.00000  -0.00000  -0.00000   0.00000
   98 C5      .XZ      -0.00000  -0.00000  -0.00000  -0.00000  -0.00000
   99 C5      .YZ       0.00000   0.00000   0.01241   0.00000   0.00000
  100 C6      .S       -0.32496   0.00146   0.00146   0.00146   0.17449
  101 C6      .S        1.35781   0.02463   0.02463   0.02463   0.79856
  102 C6      .X       -0.58200  -0.03327  -0.03327  -0.03327   0.05049
  103 C6      .Y        0.00000   0.02303  -0.00000  -0.02303   0.00000
  104 C6      .Z       -0.00000   0.00000  -0.02303  -0.00000   0.00000
  105 C6      .S       -0.20023  -0.00984  -0.00984  -0.00984  -4.53941
  106 C6      .X       -1.24132  -0.03221  -0.03221  -0.03221   6.00238
  107 C6      .Y        0.00000  -0.12063   0.00000   0.12063  -0.00000
  108 C6      .Z        0.00000   0.00000   0.12063   0.00000   0.00000
  109 C6      .XX      -2.63021   0.02928   0.02928   0.02928   0.02123
  110 C6      .YY      -0.62925   0.00587   0.01137   0.00587   0.25277
  111 C6      .ZZ      -0.62925   0.01137   0.00587   0.01137   0.25277
  112 C6      .XY       0.00000   0.01241  -0.00000  -0.01241  -0.00000
  113 C6      .XZ       0.00000  -0.00000  -0.01241   0.00000   0.00000
  114 C6      .YZ       0.00000  -0.00000   0.00000  -0.00000   0.00000
  115 C7      .S        0.02279   0.00146   0.00146   0.00146   0.17449
  116 C7      .S        0.12045   0.02463   0.02463   0.02463   0.79856
  117 C7      .X       -0.02918   0.03327   0.03327   0.03327  -0.05049
  118 C7      .Y       -0.00000   0.02303   0.00000  -0.02303   0.00000
  119 C7      .Z        0.00000  -0.00000  -0.02303   0.00000   0.00000
  120 C7      .S       -0.00232  -0.00984  -0.00984  -0.00984  -4.53941
  121 C7      .X       -0.78062   0.03221   0.03221   0.03221  -6.00238
  122 C7      .Y        0.00000  -0.12063   0.00000   0.12063  -0.00000
  123 C7      .Z        0.00000   0.00000   0.12063   0.00000   0.00000
  124 C7      .XX      -0.04101   0.02928   0.02928   0.02928   0.02123
  125 C7      .YY       0.02205   0.00587   0.01137   0.00587   0.25277
  126 C7      .ZZ       0.02205   0.01137   0.00587   0.01137   0.25277
  127 C7      .XY       0.00000  -0.01241  -0.00000   0.01241   0.00000
  128 C7      .XZ       0.00000   0.00000   0.01241  -0.00000  -0.00000
  129 C7      .YZ      -0.00000   0.00000  -0.00000  -0.00000  -0.00000
  130 O8      .S       -0.00243  -0.00243   0.03383  -0.00243   0.16706
  131 O8      .S       -0.01083  -0.01083   0.10251  -0.01083   0.53553
  132 O8      .X       -0.01063  -0.00000   0.00000   0.00000  -0.00000
  133 O8      .Y       -0.00000  -0.01063   0.00000   0.01063  -0.00000
  134 O8      .Z        0.00850   0.00850  -0.01437   0.00850  -0.03969
  135 O8      .S        0.04938   0.04938  -0.84795   0.04938  -4.45956
  136 O8      .X        0.04481  -0.00000  -0.00000  -0.00000   0.00000
  137 O8      .Y       -0.00000   0.04481  -0.00000  -0.04481   0.00000
  138 O8      .Z       -0.01711  -0.01711   0.20877  -0.01711   0.90889
  139 O8      .XX      -0.00822  -0.00940   0.09392  -0.00940   0.47016
  140 O8      .YY      -0.00940  -0.00822   0.09392  -0.00822   0.47016
  141 O8      .ZZ      -0.00963  -0.00963   0.08178  -0.00963   0.42588
  142 O8      .XY       0.00000   0.00000  -0.00000  -0.00000   0.00000
  143 O8      .XZ      -0.01091   0.00000   0.00000  -0.00000  -0.00000
  144 O8      .YZ       0.00000  -0.01091   0.00000   0.01091  -0.00000
  145 O9      .S       -0.00243  -0.03821  -0.00243   0.03383   0.16706
  146 O9      .S       -0.01083   0.28405  -0.01083   0.10251   0.53553
  147 O9      .X       -0.01063   0.00000   0.00000   0.00000  -0.00000
  148 O9      .Y        0.00850  -0.65109   0.00850  -0.01437  -0.03969
  149 O9      .Z        0.00000   0.00000   0.01063   0.00000  -0.00000
  150 O9      .S        0.04938   1.82820   0.04938  -0.84795  -4.45956
  151 O9      .X        0.04481  -0.00000  -0.00000  -0.00000   0.00000
  152 O9      .Y       -0.01711  -0.99730  -0.01711   0.20877   0.90889
  153 O9      .Z       -0.00000  -0.00000  -0.04481  -0.00000  -0.00000
  154 O9      .XX      -0.00822  -0.24910  -0.00940   0.09392   0.47016
  155 O9      .YY      -0.00963   0.59908  -0.00963   0.08178   0.42588
  156 O9      .ZZ      -0.00940  -0.24910  -0.00822   0.09392   0.47016
  157 O9      .XY      -0.01091  -0.00000  -0.00000   0.00000  -0.00000
  158 O9      .XZ      -0.00000  -0.00000   0.00000  -0.00000   0.00000
  159 O9      .YZ       0.00000   0.00000   0.01091  -0.00000   0.00000
  160 O10     .S       -0.00243  -0.00243  -0.03821  -0.00243   0.16706
  161 O10     .S       -0.01083  -0.01083   0.28405  -0.01083   0.53553
  162 O10     .X       -0.01063   0.00000   0.00000   0.00000  -0.00000
  163 O10     .Y       -0.00000  -0.01063  -0.00000   0.01063  -0.00000
  164 O10     .Z       -0.00850  -0.00850   0.65109  -0.00850   0.03969
  165 O10     .S        0.04938   0.04938   1.82820   0.04938  -4.45956
  166 O10     .X        0.04481  -0.00000  -0.00000  -0.00000   0.00000
  167 O10     .Y       -0.00000   0.04481  -0.00000  -0.04481   0.00000
  168 O10     .Z        0.01711   0.01711   0.99730   0.01711  -0.90889
  169 O10     .XX      -0.00822  -0.00940  -0.24910  -0.00940   0.47016
  170 O10     .YY      -0.00940  -0.00822  -0.24910  -0.00822   0.47016
  171 O10     .ZZ      -0.00963  -0.00963   0.59908  -0.00963   0.42588
  172 O10     .XY       0.00000   0.00000  -0.00000   0.00000   0.00000
  173 O10     .XZ       0.01091   0.00000   0.00000  -0.00000   0.00000
  174 O10     .YZ       0.00000   0.01091   0.00000  -0.01091   0.00000
  175 O11     .S       -0.00243   0.03383  -0.00243  -0.03821   0.16706
  176 O11     .S       -0.01083   0.10251  -0.01083   0.28405   0.53553
  177 O11     .X       -0.01063   0.00000   0.00000   0.00000  -0.00000
  178 O11     .Y       -0.00850   0.01437  -0.00850   0.65109   0.03969
  179 O11     .Z       -0.00000  -0.00000   0.01063  -0.00000  -0.00000
  180 O11     .S        0.04938  -0.84795   0.04938   1.82820  -4.45956
  181 O11     .X        0.04481  -0.00000  -0.00000  -0.00000   0.00000
  182 O11     .Y        0.01711  -0.20877   0.01711   0.99730  -0.90889
  183 O11     .Z        0.00000  -0.00000  -0.04481  -0.00000  -0.00000
  184 O11     .XX      -0.00822   0.09392  -0.00940  -0.24910   0.47016
  185 O11     .YY      -0.00963   0.08178  -0.00963   0.59908   0.42588
  186 O11     .ZZ      -0.00940   0.09392  -0.00822  -0.24910   0.47016
  187 O11     .XY       0.01091  -0.00000  -0.00000  -0.00000   0.00000
  188 O11     .XZ      -0.00000   0.00000   0.00000   0.00000   0.00000
  189 O11     .YZ       0.00000   0.00000  -0.01091  -0.00000  -0.00000
  190 O12     .S       -0.03821  -0.00243  -0.00243  -0.00243   0.16706
  191 O12     .S        0.28405  -0.01083  -0.01083  -0.01083   0.53553
  192 O12     .X       -0.65109   0.00850   0.00850   0.00850  -0.03969
  193 O12     .Y        0.00000  -0.01063   0.00000   0.01063  -0.00000
  194 O12     .Z        0.00000  -0.00000   0.01063   0.00000  -0.00000
  195 O12     .S        1.82820   0.04938   0.04938   0.04938  -4.45956
  196 O12     .X       -0.99730  -0.01711  -0.01711  -0.01711   0.90889
  197 O12     .Y       -0.00000   0.04481  -0.00000  -0.04481   0.00000
  198 O12     .Z       -0.00000  -0.00000  -0.04481  -0.00000  -0.00000
  199 O12     .XX       0.59908  -0.00963  -0.00963  -0.00963   0.42588
  200 O12     .YY      -0.24910  -0.00822  -0.00940  -0.00822   0.47016
  201 O12     .ZZ      -0.24910  -0.00940  -0.00822  -0.00940   0.47016
  202 O12     .XY       0.00000  -0.01091   0.00000   0.01091  -0.00000
  203 O12     .XZ       0.00000   0.00000   0.01091   0.00000   0.00000
  204 O12     .YZ       0.00000   0.00000   0.00000  -0.00000  -0.00000
  205 O13     .S        0.03383  -0.00243  -0.00243  -0.00243   0.16706
  206 O13     .S        0.10251  -0.01083  -0.01083  -0.01083   0.53553
  207 O13     .X        0.01437  -0.00850  -0.00850  -0.00850   0.03969
  208 O13     .Y       -0.00000  -0.01063  -0.00000   0.01063  -0.00000
  209 O13     .Z        0.00000   0.00000   0.01063   0.00000  -0.00000
  210 O13     .S       -0.84795   0.04938   0.04938   0.04938  -4.45956
  211 O13     .X       -0.20877   0.01711   0.01711   0.01711  -0.90889
  212 O13     .Y       -0.00000   0.04481  -0.00000  -0.04481   0.00000
  213 O13     .Z       -0.00000  -0.00000  -0.04481  -0.00000  -0.00000
  214 O13     .XX       0.08178  -0.00963  -0.00963  -0.00963   0.42588
  215 O13     .YY       0.09392  -0.00822  -0.00940  -0.00822   0.47016
  216 O13     .ZZ       0.09392  -0.00940  -0.00822  -0.00940   0.47016
  217 O13     .XY      -0.00000   0.01091  -0.00000  -0.01091   0.00000
  218 O13     .XZ      -0.00000   0.00000  -0.01091  -0.00000  -0.00000
  219 O13     .YZ       0.00000  -0.00000   0.00000  -0.00000   0.00000
                         216
                           V    
     Eigenvalues --  27211.3952
    1 Cr1     .S        0.20173
    2 Cr1     .S        0.62521
    3 Cr1     .X        0.00000
    4 Cr1     .Y       -0.00000
    5 Cr1     .Z       -0.00000
    6 Cr1     .S       14.43227
    7 Cr1     .X       -0.00000
    8 Cr1     .Y       -0.00000
    9 Cr1     .Z       -0.00000
   10 Cr1     .S      -15.50170
   11 Cr1     .X       -0.00000
   12 Cr1     .Y       -0.00000
   13 Cr1     .Z       -0.00000
   14 Cr1     .S       -1.48870
   15 Cr1     .X        0.00000
   16 Cr1     .Y        0.00000
   17 Cr1     .Z        0.00000
   18 Cr1     .XX       7.84968
   19 Cr1     .YY       7.84968
   20 Cr1     .ZZ       7.84968
   21 Cr1     .XY      -0.00000
   22 Cr1     .XZ      -0.00000
   23 Cr1     .YZ      -0.00000
   24 Cr1     .XX      -0.80110
   25 Cr1     .YY      -0.80110
   26 Cr1     .ZZ      -0.80110
   27 Cr1     .XY       0.00000
   28 Cr1     .XZ       0.00000
   29 Cr1     .YZ       0.00000
   30 Cr1     .XXX     -0.00000
   31 Cr1     .YYY     -0.00000
   32 Cr1     .ZZZ     -0.00000
   33 Cr1     .XYY     -0.00000
   34 Cr1     .XXY     -0.00000
   35 Cr1     .XXZ     -0.00000
   36 Cr1     .XZZ      0.00000
   37 Cr1     .YZZ     -0.00000
   38 Cr1     .YYZ     -0.00000
   39 Cr1     .XYZ      0.00000
   40 C2      .S        0.07460
   41 C2      .S        0.27639
   42 C2      .X       -0.00000
   43 C2      .Y        0.00000
   44 C2      .Z       -0.03335
   45 C2      .S       -3.22526
   46 C2      .X        0.00000
   47 C2      .Y        0.00000
   48 C2      .Z        1.91830
   49 C2      .XX       0.11773
   50 C2      .YY       0.11773
   51 C2      .ZZ       0.13744
   52 C2      .XY       0.00000
   53 C2      .XZ       0.00000
   54 C2      .YZ      -0.00000
   55 C3      .S        0.07460
   56 C3      .S        0.27639
   57 C3      .X       -0.00000
   58 C3      .Y       -0.03335
   59 C3      .Z        0.00000
   60 C3      .S       -3.22526
   61 C3      .X        0.00000
   62 C3      .Y        1.91830
   63 C3      .Z        0.00000
   64 C3      .XX       0.11773
   65 C3      .YY       0.13744
   66 C3      .ZZ       0.11773
   67 C3      .XY      -0.00000
   68 C3      .XZ      -0.00000
   69 C3      .YZ       0.00000
   70 C4      .S        0.07460
   71 C4      .S        0.27639
   72 C4      .X       -0.00000
   73 C4      .Y        0.00000
   74 C4      .Z        0.03335
   75 C4      .S       -3.22526
   76 C4      .X        0.00000
   77 C4      .Y       -0.00000
   78 C4      .Z       -1.91830
   79 C4      .XX       0.11773
   80 C4      .YY       0.11773
   81 C4      .ZZ       0.13744
   82 C4      .XY      -0.00000
   83 C4      .XZ       0.00000
   84 C4      .YZ       0.00000
   85 C5      .S        0.07460
   86 C5      .S        0.27639
   87 C5      .X       -0.00000
   88 C5      .Y        0.03335
   89 C5      .Z        0.00000
   90 C5      .S       -3.22526
   91 C5      .X        0.00000
   92 C5      .Y       -1.91830
   93 C5      .Z        0.00000
   94 C5      .XX       0.11773
   95 C5      .YY       0.13744
   96 C5      .ZZ       0.11773
   97 C5      .XY       0.00000
   98 C5      .XZ       0.00000
   99 C5      .YZ       0.00000
  100 C6      .S        0.07460
  101 C6      .S        0.27639
  102 C6      .X       -0.03335
  103 C6      .Y        0.00000
  104 C6      .Z        0.00000
  105 C6      .S       -3.22526
  106 C6      .X        1.91830
  107 C6      .Y       -0.00000
  108 C6      .Z        0.00000
  109 C6      .XX       0.13744
  110 C6      .YY       0.11773
  111 C6      .ZZ       0.11773
  112 C6      .XY       0.00000
  113 C6      .XZ       0.00000
  114 C6      .YZ      -0.00000
  115 C7      .S        0.07460
  116 C7      .S        0.27639
  117 C7      .X        0.03335
  118 C7      .Y        0.00000
  119 C7      .Z        0.00000
  120 C7      .S       -3.22526
  121 C7      .X       -1.91830
  122 C7      .Y       -0.00000
  123 C7      .Z        0.00000
  124 C7      .XX       0.13744
  125 C7      .YY       0.11773
  126 C7      .ZZ       0.11773
  127 C7      .XY       0.00000
  128 C7      .XZ      -0.00000
  129 C7      .YZ      -0.00000
  130 O8      .S        0.00419
  131 O8      .S        0.00228
  132 O8      .X        0.00000
  133 O8      .Y       -0.00000
  134 O8      .Z        0.02865
  135 O8      .S       -0.39032
  136 O8      .X       -0.00000
  137 O8      .Y        0.00000
  138 O8      .Z       -0.02724
  139 O8      .XX       0.00013
  140 O8      .YY       0.00013
  141 O8      .ZZ       0.01280
  142 O8      .XY       0.00000
  143 O8      .XZ       0.00000
  144 O8      .YZ      -0.00000
  145 O9      .S        0.00419
  146 O9      .S        0.00228
  147 O9      .X        0.00000
  148 O9      .Y        0.02865
  149 O9      .Z       -0.00000
  150 O9      .S       -0.39032
  151 O9      .X       -0.00000
  152 O9      .Y       -0.02724
  153 O9      .Z       -0.00000
  154 O9      .XX       0.00013
  155 O9      .YY       0.01280
  156 O9      .ZZ       0.00013
  157 O9      .XY      -0.00000
  158 O9      .XZ      -0.00000
  159 O9      .YZ       0.00000
  160 O10     .S        0.00419
  161 O10     .S        0.00228
  162 O10     .X        0.00000
  163 O10     .Y       -0.00000
  164 O10     .Z       -0.02865
  165 O10     .S       -0.39032
  166 O10     .X       -0.00000
  167 O10     .Y        0.00000
  168 O10     .Z        0.02724
  169 O10     .XX       0.00013
  170 O10     .YY       0.00013
  171 O10     .ZZ       0.01280
  172 O10     .XY       0.00000
  173 O10     .XZ       0.00000
  174 O10     .YZ       0.00000
  175 O11     .S        0.00419
  176 O11     .S        0.00228
  177 O11     .X        0.00000
  178 O11     .Y       -0.02865
  179 O11     .Z       -0.00000
  180 O11     .S       -0.39032
  181 O11     .X       -0.00000
  182 O11     .Y        0.02724
  183 O11     .Z       -0.00000
  184 O11     .XX       0.00013
  185 O11     .YY       0.01280
  186 O11     .ZZ       0.00013
  187 O11     .XY      -0.00000
  188 O11     .XZ       0.00000
  189 O11     .YZ      -0.00000
  190 O12     .S        0.00419
  191 O12     .S        0.00228
  192 O12     .X        0.02865
  193 O12     .Y       -0.00000
  194 O12     .Z       -0.00000
  195 O12     .S       -0.39032
  196 O12     .X       -0.02724
  197 O12     .Y        0.00000
  198 O12     .Z       -0.00000
  199 O12     .XX       0.01280
  200 O12     .YY       0.00013
  201 O12     .ZZ       0.00013
  202 O12     .XY       0.00000
  203 O12     .XZ       0.00000
  204 O12     .YZ       0.00000
  205 O13     .S        0.00419
  206 O13     .S        0.00228
  207 O13     .X       -0.02865
  208 O13     .Y       -0.00000
  209 O13     .Z       -0.00000
  210 O13     .S       -0.39032
  211 O13     .X        0.02724
  212 O13     .Y        0.00000
  213 O13     .Z       -0.00000
  214 O13     .XX       0.01280
  215 O13     .YY       0.00013
  216 O13     .ZZ       0.00013
  217 O13     .XY       0.00000
  218 O13     .XZ      -0.00000
  219 O13     .YZ       0.00000
