 Entering Gaussian System, Link 0=g16
 Initial command:
 /opt/cms/q-ch/gaussian/A03/g16/l1.exe "/scr/a.zhugayevych/174656/Gau-1621.inp" -scrdir="/scr/a.zhugayevych/174656/"
 Default is to use a total of   8 processors:
                                8 via shared-memory
                                1 via Linda
 Entering Link 1 = /opt/cms/q-ch/gaussian/A03/g16/l1.exe PID=      1622.
  
 Copyright (c) 1988,1990,1992,1993,1995,1998,2003,2009,2016,
            Gaussian, Inc.  All Rights Reserved.
  
 This is part of the Gaussian(R) 16 program.  It is based on
 the Gaussian(R) 09 system (copyright 2009, Gaussian, Inc.),
 the Gaussian(R) 03 system (copyright 2003, Gaussian, Inc.),
 the Gaussian(R) 98 system (copyright 1998, Gaussian, Inc.),
 the Gaussian(R) 94 system (copyright 1995, Gaussian, Inc.),
 the Gaussian 92(TM) system (copyright 1992, Gaussian, Inc.),
 the Gaussian 90(TM) system (copyright 1990, Gaussian, Inc.),
 the Gaussian 88(TM) system (copyright 1988, Gaussian, Inc.),
 the Gaussian 86(TM) system (copyright 1986, Carnegie Mellon
 University), and the Gaussian 82(TM) system (copyright 1983,
 Carnegie Mellon University). Gaussian is a federally registered
 trademark of Gaussian, Inc.
  
 This software contains proprietary and confidential information,
 including trade secrets, belonging to Gaussian, Inc.
  
 This software is provided under written license and may be
 used, copied, transmitted, or stored only in accord with that
 written license.
  
 The following legend is applicable only to US Government
 contracts under FAR:
  
                    RESTRICTED RIGHTS LEGEND
  
 Use, reproduction and disclosure by the US Government is
 subject to restrictions as set forth in subparagraphs (a)
 and (c) of the Commercial Computer Software - Restricted
 Rights clause in FAR 52.227-19.
  
 Gaussian, Inc.
 340 Quinnipiac St., Bldg. 40, Wallingford CT 06492
  
  
 ---------------------------------------------------------------
 Warning -- This program may not be used in any manner that
 competes with the business of Gaussian, Inc. or will provide
 assistance to any competitor of Gaussian, Inc.  The licensee
 of this program is prohibited from giving any competitor of
 Gaussian, Inc. access to this program.  By using this program,
 the user acknowledges that Gaussian, Inc. is engaged in the
 business of creating and licensing software in the field of
 computational chemistry and represents and warrants to the
 licensee that it is not a competitor of Gaussian, Inc. and that
 it will not use this program in any manner prohibited above.
 ---------------------------------------------------------------
  

 Cite this work as:
 Gaussian 16, Revision A.03,
 M. J. Frisch, G. W. Trucks, H. B. Schlegel, G. E. Scuseria, 
 M. A. Robb, J. R. Cheeseman, G. Scalmani, V. Barone, 
 G. A. Petersson, H. Nakatsuji, X. Li, M. Caricato, A. V. Marenich, 
 J. Bloino, B. G. Janesko, R. Gomperts, B. Mennucci, H. P. Hratchian, 
 J. V. Ortiz, A. F. Izmaylov, J. L. Sonnenberg, D. Williams-Young, 
 F. Ding, F. Lipparini, F. Egidi, J. Goings, B. Peng, A. Petrone, 
 T. Henderson, D. Ranasinghe, V. G. Zakrzewski, J. Gao, N. Rega, 
 G. Zheng, W. Liang, M. Hada, M. Ehara, K. Toyota, R. Fukuda, 
 J. Hasegawa, M. Ishida, T. Nakajima, Y. Honda, O. Kitao, H. Nakai, 
 T. Vreven, K. Throssell, J. A. Montgomery, Jr., J. E. Peralta, 
 F. Ogliaro, M. J. Bearpark, J. J. Heyd, E. N. Brothers, K. N. Kudin, 
 V. N. Staroverov, T. A. Keith, R. Kobayashi, J. Normand, 
 K. Raghavachari, A. P. Rendell, J. C. Burant, S. S. Iyengar, 
 J. Tomasi, M. Cossi, J. M. Millam, M. Klene, C. Adamo, R. Cammi, 
 J. W. Ochterski, R. L. Martin, K. Morokuma, O. Farkas, 
 J. B. Foresman, and D. J. Fox, Gaussian, Inc., Wallingford CT, 2016.
 
 ******************************************
 Gaussian 16:  ES64L-G16RevA.03 25-Dec-2016
                14-Oct-2020 
 ******************************************
 %rwf=CrCO6_molec_PBE0a3p_nbo.rwf
 ----------------------------------------------------------------------
 #P PBE1PBE Def2TZVP int(ultrafine) gfprint nosymm pop(NBO,SaveNBOs) De
 nsity
 ----------------------------------------------------------------------
 1/30=1,38=1,172=1/1;
 2/12=2,15=1,17=6,18=5,40=1/2;
 3/5=44,7=101,11=2,24=100,25=1,30=1,74=-13,75=-5/1,2,3;
 4//1;
 5/5=2,38=5/2;
 6/7=2,8=2,9=2,10=2,22=-1,28=1,40=1,73=1/1,7;
 99/5=1,9=1/99;
 Leave Link    1 at Wed Oct 14 12:02:12 2020, MaxMem=           0 cpu:               0.7 elap:               0.4
 (Enter /opt/cms/q-ch/gaussian/A03/g16/l101.exe)


 Symbolic Z-matrix:
 Charge =  0 Multiplicity = 1
 Cr                    0.        0.        0. 
 C                     1.89781   0.        0. 
 C                     0.       -1.89781   0. 
 C                    -1.89781   0.        0. 
 C                     0.        1.89781   0. 
 C                     0.        0.        1.89781 
 C                     0.        0.       -1.89781 
 O                     3.03462   0.        0. 
 O                     0.       -3.03462   0. 
 O                    -3.03462   0.        0. 
 O                     0.        3.03462   0. 
 O                     0.        0.        3.03462 
 O                     0.        0.       -3.03462 
 
 ITRead=  0  0  0  0  0  0  0  0  0  0  0  0  0
 MicOpt= -1 -1 -1 -1 -1 -1 -1 -1 -1 -1 -1 -1 -1
 NAtoms=     13 NQM=       13 NQMF=       0 NMMI=      0 NMMIF=      0
                NMic=       0 NMicF=      0.
                    Isotopes and Nuclear Properties:
 (Nuclear quadrupole moments (NQMom) in fm**2, nuclear magnetic moments (NMagM)
  in nuclear magnetons)

  Atom         1           2           3           4           5           6           7           8           9          10
 IAtWgt=          52          12          12          12          12          12          12          16          16          16
 AtmWgt=  51.9405097  12.0000000  12.0000000  12.0000000  12.0000000  12.0000000  12.0000000  15.9949146  15.9949146  15.9949146
 NucSpn=           0           0           0           0           0           0           0           0           0           0
 AtZEff=  -0.0000000  -0.0000000  -0.0000000  -0.0000000  -0.0000000  -0.0000000  -0.0000000  -0.0000000  -0.0000000  -0.0000000
 NQMom=    0.0000000   0.0000000   0.0000000   0.0000000   0.0000000   0.0000000   0.0000000   0.0000000   0.0000000   0.0000000
 NMagM=    0.0000000   0.0000000   0.0000000   0.0000000   0.0000000   0.0000000   0.0000000   0.0000000   0.0000000   0.0000000
 AtZNuc=  24.0000000   6.0000000   6.0000000   6.0000000   6.0000000   6.0000000   6.0000000   8.0000000   8.0000000   8.0000000

  Atom        11          12          13
 IAtWgt=          16          16          16
 AtmWgt=  15.9949146  15.9949146  15.9949146
 NucSpn=           0           0           0
 AtZEff=  -0.0000000  -0.0000000  -0.0000000
 NQMom=    0.0000000   0.0000000   0.0000000
 NMagM=    0.0000000   0.0000000   0.0000000
 AtZNuc=   8.0000000   8.0000000   8.0000000
 Leave Link  101 at Wed Oct 14 12:02:13 2020, MaxMem=  7068979123 cpu:               1.6 elap:               0.3
 (Enter /opt/cms/q-ch/gaussian/A03/g16/l202.exe)
                          Input orientation:                          
 ---------------------------------------------------------------------
 Center     Atomic      Atomic             Coordinates (Angstroms)
 Number     Number       Type             X           Y           Z
 ---------------------------------------------------------------------
      1         24           0        0.000000    0.000000    0.000000
      2          6           0        1.897809    0.000000    0.000000
      3          6           0        0.000000   -1.897809    0.000000
      4          6           0       -1.897809    0.000000    0.000000
      5          6           0        0.000000    1.897809    0.000000
      6          6           0        0.000000    0.000000    1.897809
      7          6           0        0.000000    0.000000   -1.897809
      8          8           0        3.034617    0.000000    0.000000
      9          8           0        0.000000   -3.034617    0.000000
     10          8           0       -3.034617    0.000000    0.000000
     11          8           0        0.000000    3.034617    0.000000
     12          8           0        0.000000    0.000000    3.034617
     13          8           0        0.000000    0.000000   -3.034617
 ---------------------------------------------------------------------
                    Distance matrix (angstroms):
                    1          2          3          4          5
     1  Cr   0.000000
     2  C    1.897809   0.000000
     3  C    1.897809   2.683907   0.000000
     4  C    1.897809   3.795618   2.683907   0.000000
     5  C    1.897809   2.683907   3.795618   2.683907   0.000000
     6  C    1.897809   2.683907   2.683907   2.683907   2.683907
     7  C    1.897809   2.683907   2.683907   2.683907   2.683907
     8  O    3.034617   1.136808   3.579187   4.932426   3.579187
     9  O    3.034617   3.579187   1.136808   3.579187   4.932426
    10  O    3.034617   4.932426   3.579187   1.136808   3.579187
    11  O    3.034617   3.579187   4.932426   3.579187   1.136808
    12  O    3.034617   3.579187   3.579187   3.579187   3.579187
    13  O    3.034617   3.579187   3.579187   3.579187   3.579187
                    6          7          8          9         10
     6  C    0.000000
     7  C    3.795618   0.000000
     8  O    3.579187   3.579187   0.000000
     9  O    3.579187   3.579187   4.291597   0.000000
    10  O    3.579187   3.579187   6.069234   4.291597   0.000000
    11  O    3.579187   3.579187   4.291597   6.069234   4.291597
    12  O    1.136808   4.932426   4.291597   4.291597   4.291597
    13  O    4.932426   1.136808   4.291597   4.291597   4.291597
                   11         12         13
    11  O    0.000000
    12  O    4.291597   0.000000
    13  O    4.291597   6.069234   0.000000
 Symmetry turned off by external request.
 Stoichiometry    C6CrO6
 Framework group  OH[O(Cr),3C4(OC.CO)]
 Deg. of freedom     2
 Full point group                 OH      NOp  48
 Rotational constants (GHZ):           0.6631723           0.6631723           0.6631723
 Leave Link  202 at Wed Oct 14 12:02:13 2020, MaxMem=  7068979123 cpu:               0.1 elap:               0.1
 (Enter /opt/cms/q-ch/gaussian/A03/g16/l301.exe)
 Standard basis: def2TZVP (5D, 7F)
 ======================================================================================================
                                       Pseudopotential Parameters
 ======================================================================================================
  Center     Atomic      Valence      Angular      Power
  Number     Number     Electrons     Momentum     of R      Exponent        Coefficient   SO-Coeffient
 ======================================================================================================
    1         24
                                   No pseudopotential on this center.
    2          6
                                   No pseudopotential on this center.
    3          6
                                   No pseudopotential on this center.
    4          6
                                   No pseudopotential on this center.
    5          6
                                   No pseudopotential on this center.
    6          6
                                   No pseudopotential on this center.
    7          6
                                   No pseudopotential on this center.
    8          8
                                   No pseudopotential on this center.
    9          8
                                   No pseudopotential on this center.
   10          8
                                   No pseudopotential on this center.
   11          8
                                   No pseudopotential on this center.
   12          8
                                   No pseudopotential on this center.
   13          8
                                   No pseudopotential on this center.
 ======================================================================================================
 Ernie: Thresh=  0.10000D-02 Tol=  0.10000D-05 Strict=F.
 AO basis set (Overlap normalization):
 Atom Cr1      Shell     1 S   8     bf    1 -     1          0.000000000000          0.000000000000          0.000000000000
      0.2544778070D+06  0.2429047764D-03
      0.3813179705D+05  0.1884352361D-02
      0.8675293061D+04  0.9800958439D-02
      0.2455009985D+04  0.3982500865D-01
      0.7991621779D+03  0.1294054373D+00
      0.2869002149D+03  0.3062900181D+00
      0.1112541323D+03  0.4346283498D+00
      0.4386415264D+02  0.2246956287D+00
 Atom Cr1      Shell     2 S   4     bf    2 -     2          0.000000000000          0.000000000000          0.000000000000
      0.2793266917D+03 -0.2436335791D-01
      0.8627473238D+02 -0.1151149539D+00
      0.1355575611D+02  0.5509226628D+00
      0.5697811275D+01  0.5361135469D+00
 Atom Cr1      Shell     3 S   2     bf    3 -     3          0.000000000000          0.000000000000          0.000000000000
      0.8563658262D+01 -0.3712301769D+00
      0.1398829677D+01  0.1168116946D+01
 Atom Cr1      Shell     4 S   1     bf    4 -     4          0.000000000000          0.000000000000          0.000000000000
      0.5728817112D+00  0.1000000000D+01
 Atom Cr1      Shell     5 S   1     bf    5 -     5          0.000000000000          0.000000000000          0.000000000000
      0.9009617132D-01  0.1000000000D+01
 Atom Cr1      Shell     6 S   1     bf    6 -     6          0.000000000000          0.000000000000          0.000000000000
      0.3412588513D-01  0.1000000000D+01
 Atom Cr1      Shell     7 P   6     bf    7 -     9          0.000000000000          0.000000000000          0.000000000000
      0.1306439886D+04  0.2829280065D-02
      0.3092531144D+03  0.2277662920D-01
      0.9899627396D+02  0.1056456190D+00
      0.3675691645D+02  0.2994994492D+00
      0.1456665708D+02  0.4770624536D+00
      0.5873993743D+01  0.2765423438D+00
 Atom Cr1      Shell     8 P   3     bf   10 -    12          0.000000000000          0.000000000000          0.000000000000
      0.2289099970D+02 -0.1941210608D-01
      0.3085500182D+01  0.3861887582D+00
      0.1213232912D+01  0.6762390890D+00
 Atom Cr1      Shell     9 P   1     bf   13 -    15          0.000000000000          0.000000000000          0.000000000000
      0.4493168070D+00  0.1000000000D+01
 Atom Cr1      Shell    10 P   1     bf   16 -    18          0.000000000000          0.000000000000          0.000000000000
      0.1206750000D+00  0.1000000000D+01
 Atom Cr1      Shell    11 D   4     bf   19 -    23          0.000000000000          0.000000000000          0.000000000000
      0.4372007448D+02  0.2209325926D-01
      0.1239124265D+02  0.1280143877D+00
      0.4263944201D+01  0.3865291028D+00
      0.1552522179D+01  0.6410330144D+00
 Atom Cr1      Shell    12 D   1     bf   24 -    28          0.000000000000          0.000000000000          0.000000000000
      0.5376192949D+00  0.1000000000D+01
 Atom Cr1      Shell    13 D   1     bf   29 -    33          0.000000000000          0.000000000000          0.000000000000
      0.1649317307D+00  0.1000000000D+01
 Atom Cr1      Shell    14 D   1     bf   34 -    38          0.000000000000          0.000000000000          0.000000000000
      0.5100000000D-01  0.1000000000D+01
 Atom Cr1      Shell    15 F   1     bf   39 -    45          0.000000000000          0.000000000000          0.000000000000
      0.1147000000D+01  0.1000000000D+01
 Atom C2       Shell    16 S   6     bf   46 -    46          3.586339246735          0.000000000000          0.000000000000
      0.1357534968D+05  0.6064550360D-03
      0.2035233368D+04  0.4697908888D-02
      0.4632256236D+03  0.2433247765D-01
      0.1312001960D+03  0.9739996831D-01
      0.4285301589D+02  0.3019558425D+00
      0.1558418577D+02  0.6623360914D+00
 Atom C2       Shell    17 S   2     bf   47 -    47          3.586339246735          0.000000000000          0.000000000000
      0.6206713851D+01  0.6559530854D+00
      0.2576489653D+01  0.3758563329D+00
 Atom C2       Shell    18 S   1     bf   48 -    48          3.586339246735          0.000000000000          0.000000000000
      0.5769633942D+00  0.1000000000D+01
 Atom C2       Shell    19 S   1     bf   49 -    49          3.586339246735          0.000000000000          0.000000000000
      0.2297283136D+00  0.1000000000D+01
 Atom C2       Shell    20 S   1     bf   50 -    50          3.586339246735          0.000000000000          0.000000000000
      0.9516444003D-01  0.1000000000D+01
 Atom C2       Shell    21 P   4     bf   51 -    53          3.586339246735          0.000000000000          0.000000000000
      0.3469723224D+02  0.1132722000D-01
      0.7958262283D+01  0.7616965920D-01
      0.2378082688D+01  0.3019225220D+00
      0.8143320818D+00  0.7278502735D+00
 Atom C2       Shell    22 P   1     bf   54 -    56          3.586339246735          0.000000000000          0.000000000000
      0.2888754725D+00  0.1000000000D+01
 Atom C2       Shell    23 P   1     bf   57 -    59          3.586339246735          0.000000000000          0.000000000000
      0.1005682367D+00  0.1000000000D+01
 Atom C2       Shell    24 D   1     bf   60 -    64          3.586339246735          0.000000000000          0.000000000000
      0.1097000000D+01  0.1000000000D+01
 Atom C2       Shell    25 D   1     bf   65 -    69          3.586339246735          0.000000000000          0.000000000000
      0.3180000000D+00  0.1000000000D+01
 Atom C2       Shell    26 F   1     bf   70 -    76          3.586339246735          0.000000000000          0.000000000000
      0.7610000000D+00  0.1000000000D+01
 Atom C3       Shell    27 S   6     bf   77 -    77          0.000000000000         -3.586339246735          0.000000000000
      0.1357534968D+05  0.6064550360D-03
      0.2035233368D+04  0.4697908888D-02
      0.4632256236D+03  0.2433247765D-01
      0.1312001960D+03  0.9739996831D-01
      0.4285301589D+02  0.3019558425D+00
      0.1558418577D+02  0.6623360914D+00
 Atom C3       Shell    28 S   2     bf   78 -    78          0.000000000000         -3.586339246735          0.000000000000
      0.6206713851D+01  0.6559530854D+00
      0.2576489653D+01  0.3758563329D+00
 Atom C3       Shell    29 S   1     bf   79 -    79          0.000000000000         -3.586339246735          0.000000000000
      0.5769633942D+00  0.1000000000D+01
 Atom C3       Shell    30 S   1     bf   80 -    80          0.000000000000         -3.586339246735          0.000000000000
      0.2297283136D+00  0.1000000000D+01
 Atom C3       Shell    31 S   1     bf   81 -    81          0.000000000000         -3.586339246735          0.000000000000
      0.9516444003D-01  0.1000000000D+01
 Atom C3       Shell    32 P   4     bf   82 -    84          0.000000000000         -3.586339246735          0.000000000000
      0.3469723224D+02  0.1132722000D-01
      0.7958262283D+01  0.7616965920D-01
      0.2378082688D+01  0.3019225220D+00
      0.8143320818D+00  0.7278502735D+00
 Atom C3       Shell    33 P   1     bf   85 -    87          0.000000000000         -3.586339246735          0.000000000000
      0.2888754725D+00  0.1000000000D+01
 Atom C3       Shell    34 P   1     bf   88 -    90          0.000000000000         -3.586339246735          0.000000000000
      0.1005682367D+00  0.1000000000D+01
 Atom C3       Shell    35 D   1     bf   91 -    95          0.000000000000         -3.586339246735          0.000000000000
      0.1097000000D+01  0.1000000000D+01
 Atom C3       Shell    36 D   1     bf   96 -   100          0.000000000000         -3.586339246735          0.000000000000
      0.3180000000D+00  0.1000000000D+01
 Atom C3       Shell    37 F   1     bf  101 -   107          0.000000000000         -3.586339246735          0.000000000000
      0.7610000000D+00  0.1000000000D+01
 Atom C4       Shell    38 S   6     bf  108 -   108         -3.586339246735          0.000000000000          0.000000000000
      0.1357534968D+05  0.6064550360D-03
      0.2035233368D+04  0.4697908888D-02
      0.4632256236D+03  0.2433247765D-01
      0.1312001960D+03  0.9739996831D-01
      0.4285301589D+02  0.3019558425D+00
      0.1558418577D+02  0.6623360914D+00
 Atom C4       Shell    39 S   2     bf  109 -   109         -3.586339246735          0.000000000000          0.000000000000
      0.6206713851D+01  0.6559530854D+00
      0.2576489653D+01  0.3758563329D+00
 Atom C4       Shell    40 S   1     bf  110 -   110         -3.586339246735          0.000000000000          0.000000000000
      0.5769633942D+00  0.1000000000D+01
 Atom C4       Shell    41 S   1     bf  111 -   111         -3.586339246735          0.000000000000          0.000000000000
      0.2297283136D+00  0.1000000000D+01
 Atom C4       Shell    42 S   1     bf  112 -   112         -3.586339246735          0.000000000000          0.000000000000
      0.9516444003D-01  0.1000000000D+01
 Atom C4       Shell    43 P   4     bf  113 -   115         -3.586339246735          0.000000000000          0.000000000000
      0.3469723224D+02  0.1132722000D-01
      0.7958262283D+01  0.7616965920D-01
      0.2378082688D+01  0.3019225220D+00
      0.8143320818D+00  0.7278502735D+00
 Atom C4       Shell    44 P   1     bf  116 -   118         -3.586339246735          0.000000000000          0.000000000000
      0.2888754725D+00  0.1000000000D+01
 Atom C4       Shell    45 P   1     bf  119 -   121         -3.586339246735          0.000000000000          0.000000000000
      0.1005682367D+00  0.1000000000D+01
 Atom C4       Shell    46 D   1     bf  122 -   126         -3.586339246735          0.000000000000          0.000000000000
      0.1097000000D+01  0.1000000000D+01
 Atom C4       Shell    47 D   1     bf  127 -   131         -3.586339246735          0.000000000000          0.000000000000
      0.3180000000D+00  0.1000000000D+01
 Atom C4       Shell    48 F   1     bf  132 -   138         -3.586339246735          0.000000000000          0.000000000000
      0.7610000000D+00  0.1000000000D+01
 Atom C5       Shell    49 S   6     bf  139 -   139          0.000000000000          3.586339246735          0.000000000000
      0.1357534968D+05  0.6064550360D-03
      0.2035233368D+04  0.4697908888D-02
      0.4632256236D+03  0.2433247765D-01
      0.1312001960D+03  0.9739996831D-01
      0.4285301589D+02  0.3019558425D+00
      0.1558418577D+02  0.6623360914D+00
 Atom C5       Shell    50 S   2     bf  140 -   140          0.000000000000          3.586339246735          0.000000000000
      0.6206713851D+01  0.6559530854D+00
      0.2576489653D+01  0.3758563329D+00
 Atom C5       Shell    51 S   1     bf  141 -   141          0.000000000000          3.586339246735          0.000000000000
      0.5769633942D+00  0.1000000000D+01
 Atom C5       Shell    52 S   1     bf  142 -   142          0.000000000000          3.586339246735          0.000000000000
      0.2297283136D+00  0.1000000000D+01
 Atom C5       Shell    53 S   1     bf  143 -   143          0.000000000000          3.586339246735          0.000000000000
      0.9516444003D-01  0.1000000000D+01
 Atom C5       Shell    54 P   4     bf  144 -   146          0.000000000000          3.586339246735          0.000000000000
      0.3469723224D+02  0.1132722000D-01
      0.7958262283D+01  0.7616965920D-01
      0.2378082688D+01  0.3019225220D+00
      0.8143320818D+00  0.7278502735D+00
 Atom C5       Shell    55 P   1     bf  147 -   149          0.000000000000          3.586339246735          0.000000000000
      0.2888754725D+00  0.1000000000D+01
 Atom C5       Shell    56 P   1     bf  150 -   152          0.000000000000          3.586339246735          0.000000000000
      0.1005682367D+00  0.1000000000D+01
 Atom C5       Shell    57 D   1     bf  153 -   157          0.000000000000          3.586339246735          0.000000000000
      0.1097000000D+01  0.1000000000D+01
 Atom C5       Shell    58 D   1     bf  158 -   162          0.000000000000          3.586339246735          0.000000000000
      0.3180000000D+00  0.1000000000D+01
 Atom C5       Shell    59 F   1     bf  163 -   169          0.000000000000          3.586339246735          0.000000000000
      0.7610000000D+00  0.1000000000D+01
 Atom C6       Shell    60 S   6     bf  170 -   170          0.000000000000          0.000000000000          3.586339246735
      0.1357534968D+05  0.6064550360D-03
      0.2035233368D+04  0.4697908888D-02
      0.4632256236D+03  0.2433247765D-01
      0.1312001960D+03  0.9739996831D-01
      0.4285301589D+02  0.3019558425D+00
      0.1558418577D+02  0.6623360914D+00
 Atom C6       Shell    61 S   2     bf  171 -   171          0.000000000000          0.000000000000          3.586339246735
      0.6206713851D+01  0.6559530854D+00
      0.2576489653D+01  0.3758563329D+00
 Atom C6       Shell    62 S   1     bf  172 -   172          0.000000000000          0.000000000000          3.586339246735
      0.5769633942D+00  0.1000000000D+01
 Atom C6       Shell    63 S   1     bf  173 -   173          0.000000000000          0.000000000000          3.586339246735
      0.2297283136D+00  0.1000000000D+01
 Atom C6       Shell    64 S   1     bf  174 -   174          0.000000000000          0.000000000000          3.586339246735
      0.9516444003D-01  0.1000000000D+01
 Atom C6       Shell    65 P   4     bf  175 -   177          0.000000000000          0.000000000000          3.586339246735
      0.3469723224D+02  0.1132722000D-01
      0.7958262283D+01  0.7616965920D-01
      0.2378082688D+01  0.3019225220D+00
      0.8143320818D+00  0.7278502735D+00
 Atom C6       Shell    66 P   1     bf  178 -   180          0.000000000000          0.000000000000          3.586339246735
      0.2888754725D+00  0.1000000000D+01
 Atom C6       Shell    67 P   1     bf  181 -   183          0.000000000000          0.000000000000          3.586339246735
      0.1005682367D+00  0.1000000000D+01
 Atom C6       Shell    68 D   1     bf  184 -   188          0.000000000000          0.000000000000          3.586339246735
      0.1097000000D+01  0.1000000000D+01
 Atom C6       Shell    69 D   1     bf  189 -   193          0.000000000000          0.000000000000          3.586339246735
      0.3180000000D+00  0.1000000000D+01
 Atom C6       Shell    70 F   1     bf  194 -   200          0.000000000000          0.000000000000          3.586339246735
      0.7610000000D+00  0.1000000000D+01
 Atom C7       Shell    71 S   6     bf  201 -   201          0.000000000000          0.000000000000         -3.586339246735
      0.1357534968D+05  0.6064550360D-03
      0.2035233368D+04  0.4697908888D-02
      0.4632256236D+03  0.2433247765D-01
      0.1312001960D+03  0.9739996831D-01
      0.4285301589D+02  0.3019558425D+00
      0.1558418577D+02  0.6623360914D+00
 Atom C7       Shell    72 S   2     bf  202 -   202          0.000000000000          0.000000000000         -3.586339246735
      0.6206713851D+01  0.6559530854D+00
      0.2576489653D+01  0.3758563329D+00
 Atom C7       Shell    73 S   1     bf  203 -   203          0.000000000000          0.000000000000         -3.586339246735
      0.5769633942D+00  0.1000000000D+01
 Atom C7       Shell    74 S   1     bf  204 -   204          0.000000000000          0.000000000000         -3.586339246735
      0.2297283136D+00  0.1000000000D+01
 Atom C7       Shell    75 S   1     bf  205 -   205          0.000000000000          0.000000000000         -3.586339246735
      0.9516444003D-01  0.1000000000D+01
 Atom C7       Shell    76 P   4     bf  206 -   208          0.000000000000          0.000000000000         -3.586339246735
      0.3469723224D+02  0.1132722000D-01
      0.7958262283D+01  0.7616965920D-01
      0.2378082688D+01  0.3019225220D+00
      0.8143320818D+00  0.7278502735D+00
 Atom C7       Shell    77 P   1     bf  209 -   211          0.000000000000          0.000000000000         -3.586339246735
      0.2888754725D+00  0.1000000000D+01
 Atom C7       Shell    78 P   1     bf  212 -   214          0.000000000000          0.000000000000         -3.586339246735
      0.1005682367D+00  0.1000000000D+01
 Atom C7       Shell    79 D   1     bf  215 -   219          0.000000000000          0.000000000000         -3.586339246735
      0.1097000000D+01  0.1000000000D+01
 Atom C7       Shell    80 D   1     bf  220 -   224          0.000000000000          0.000000000000         -3.586339246735
      0.3180000000D+00  0.1000000000D+01
 Atom C7       Shell    81 F   1     bf  225 -   231          0.000000000000          0.000000000000         -3.586339246735
      0.7610000000D+00  0.1000000000D+01
 Atom O8       Shell    82 S   6     bf  232 -   232          5.734595022949          0.000000000000          0.000000000000
      0.2703238263D+05  0.5722733521D-03
      0.4052387139D+04  0.4435323349D-02
      0.9223272271D+03  0.2302010771D-01
      0.2612407099D+03  0.9282249067D-01
      0.8535464135D+02  0.2937850001D+00
      0.3103503524D+02  0.6740160450D+00
 Atom O8       Shell    83 S   2     bf  233 -   233          5.734595022949          0.000000000000          0.000000000000
      0.1226086073D+02  0.6383993703D+00
      0.4998707601D+01  0.3953458713D+00
 Atom O8       Shell    84 S   1     bf  234 -   234          5.734595022949          0.000000000000          0.000000000000
      0.1170310816D+01  0.1000000000D+01
 Atom O8       Shell    85 S   1     bf  235 -   235          5.734595022949          0.000000000000          0.000000000000
      0.4647474099D+00  0.1000000000D+01
 Atom O8       Shell    86 S   1     bf  236 -   236          5.734595022949          0.000000000000          0.000000000000
      0.1850453636D+00  0.1000000000D+01
 Atom O8       Shell    87 P   4     bf  237 -   239          5.734595022949          0.000000000000          0.000000000000
      0.6327495480D+02  0.1201833222D-01
      0.1462704938D+02  0.8300542179D-01
      0.4450122346D+01  0.3199174393D+00
      0.1527579965D+01  0.7071554292D+00
 Atom O8       Shell    88 P   1     bf  240 -   242          5.734595022949          0.000000000000          0.000000000000
      0.5293511794D+00  0.1000000000D+01
 Atom O8       Shell    89 P   1     bf  243 -   245          5.734595022949          0.000000000000          0.000000000000
      0.1747842127D+00  0.1000000000D+01
 Atom O8       Shell    90 D   1     bf  246 -   250          5.734595022949          0.000000000000          0.000000000000
      0.2314000000D+01  0.1000000000D+01
 Atom O8       Shell    91 D   1     bf  251 -   255          5.734595022949          0.000000000000          0.000000000000
      0.6450000000D+00  0.1000000000D+01
 Atom O8       Shell    92 F   1     bf  256 -   262          5.734595022949          0.000000000000          0.000000000000
      0.1428000000D+01  0.1000000000D+01
 Atom O9       Shell    93 S   6     bf  263 -   263          0.000000000000         -5.734595022949          0.000000000000
      0.2703238263D+05  0.5722733521D-03
      0.4052387139D+04  0.4435323349D-02
      0.9223272271D+03  0.2302010771D-01
      0.2612407099D+03  0.9282249067D-01
      0.8535464135D+02  0.2937850001D+00
      0.3103503524D+02  0.6740160450D+00
 Atom O9       Shell    94 S   2     bf  264 -   264          0.000000000000         -5.734595022949          0.000000000000
      0.1226086073D+02  0.6383993703D+00
      0.4998707601D+01  0.3953458713D+00
 Atom O9       Shell    95 S   1     bf  265 -   265          0.000000000000         -5.734595022949          0.000000000000
      0.1170310816D+01  0.1000000000D+01
 Atom O9       Shell    96 S   1     bf  266 -   266          0.000000000000         -5.734595022949          0.000000000000
      0.4647474099D+00  0.1000000000D+01
 Atom O9       Shell    97 S   1     bf  267 -   267          0.000000000000         -5.734595022949          0.000000000000
      0.1850453636D+00  0.1000000000D+01
 Atom O9       Shell    98 P   4     bf  268 -   270          0.000000000000         -5.734595022949          0.000000000000
      0.6327495480D+02  0.1201833222D-01
      0.1462704938D+02  0.8300542179D-01
      0.4450122346D+01  0.3199174393D+00
      0.1527579965D+01  0.7071554292D+00
 Atom O9       Shell    99 P   1     bf  271 -   273          0.000000000000         -5.734595022949          0.000000000000
      0.5293511794D+00  0.1000000000D+01
 Atom O9       Shell   100 P   1     bf  274 -   276          0.000000000000         -5.734595022949          0.000000000000
      0.1747842127D+00  0.1000000000D+01
 Atom O9       Shell   101 D   1     bf  277 -   281          0.000000000000         -5.734595022949          0.000000000000
      0.2314000000D+01  0.1000000000D+01
 Atom O9       Shell   102 D   1     bf  282 -   286          0.000000000000         -5.734595022949          0.000000000000
      0.6450000000D+00  0.1000000000D+01
 Atom O9       Shell   103 F   1     bf  287 -   293          0.000000000000         -5.734595022949          0.000000000000
      0.1428000000D+01  0.1000000000D+01
 Atom O10      Shell   104 S   6     bf  294 -   294         -5.734595022949          0.000000000000          0.000000000000
      0.2703238263D+05  0.5722733521D-03
      0.4052387139D+04  0.4435323349D-02
      0.9223272271D+03  0.2302010771D-01
      0.2612407099D+03  0.9282249067D-01
      0.8535464135D+02  0.2937850001D+00
      0.3103503524D+02  0.6740160450D+00
 Atom O10      Shell   105 S   2     bf  295 -   295         -5.734595022949          0.000000000000          0.000000000000
      0.1226086073D+02  0.6383993703D+00
      0.4998707601D+01  0.3953458713D+00
 Atom O10      Shell   106 S   1     bf  296 -   296         -5.734595022949          0.000000000000          0.000000000000
      0.1170310816D+01  0.1000000000D+01
 Atom O10      Shell   107 S   1     bf  297 -   297         -5.734595022949          0.000000000000          0.000000000000
      0.4647474099D+00  0.1000000000D+01
 Atom O10      Shell   108 S   1     bf  298 -   298         -5.734595022949          0.000000000000          0.000000000000
      0.1850453636D+00  0.1000000000D+01
 Atom O10      Shell   109 P   4     bf  299 -   301         -5.734595022949          0.000000000000          0.000000000000
      0.6327495480D+02  0.1201833222D-01
      0.1462704938D+02  0.8300542179D-01
      0.4450122346D+01  0.3199174393D+00
      0.1527579965D+01  0.7071554292D+00
 Atom O10      Shell   110 P   1     bf  302 -   304         -5.734595022949          0.000000000000          0.000000000000
      0.5293511794D+00  0.1000000000D+01
 Atom O10      Shell   111 P   1     bf  305 -   307         -5.734595022949          0.000000000000          0.000000000000
      0.1747842127D+00  0.1000000000D+01
 Atom O10      Shell   112 D   1     bf  308 -   312         -5.734595022949          0.000000000000          0.000000000000
      0.2314000000D+01  0.1000000000D+01
 Atom O10      Shell   113 D   1     bf  313 -   317         -5.734595022949          0.000000000000          0.000000000000
      0.6450000000D+00  0.1000000000D+01
 Atom O10      Shell   114 F   1     bf  318 -   324         -5.734595022949          0.000000000000          0.000000000000
      0.1428000000D+01  0.1000000000D+01
 Atom O11      Shell   115 S   6     bf  325 -   325          0.000000000000          5.734595022949          0.000000000000
      0.2703238263D+05  0.5722733521D-03
      0.4052387139D+04  0.4435323349D-02
      0.9223272271D+03  0.2302010771D-01
      0.2612407099D+03  0.9282249067D-01
      0.8535464135D+02  0.2937850001D+00
      0.3103503524D+02  0.6740160450D+00
 Atom O11      Shell   116 S   2     bf  326 -   326          0.000000000000          5.734595022949          0.000000000000
      0.1226086073D+02  0.6383993703D+00
      0.4998707601D+01  0.3953458713D+00
 Atom O11      Shell   117 S   1     bf  327 -   327          0.000000000000          5.734595022949          0.000000000000
      0.1170310816D+01  0.1000000000D+01
 Atom O11      Shell   118 S   1     bf  328 -   328          0.000000000000          5.734595022949          0.000000000000
      0.4647474099D+00  0.1000000000D+01
 Atom O11      Shell   119 S   1     bf  329 -   329          0.000000000000          5.734595022949          0.000000000000
      0.1850453636D+00  0.1000000000D+01
 Atom O11      Shell   120 P   4     bf  330 -   332          0.000000000000          5.734595022949          0.000000000000
      0.6327495480D+02  0.1201833222D-01
      0.1462704938D+02  0.8300542179D-01
      0.4450122346D+01  0.3199174393D+00
      0.1527579965D+01  0.7071554292D+00
 Atom O11      Shell   121 P   1     bf  333 -   335          0.000000000000          5.734595022949          0.000000000000
      0.5293511794D+00  0.1000000000D+01
 Atom O11      Shell   122 P   1     bf  336 -   338          0.000000000000          5.734595022949          0.000000000000
      0.1747842127D+00  0.1000000000D+01
 Atom O11      Shell   123 D   1     bf  339 -   343          0.000000000000          5.734595022949          0.000000000000
      0.2314000000D+01  0.1000000000D+01
 Atom O11      Shell   124 D   1     bf  344 -   348          0.000000000000          5.734595022949          0.000000000000
      0.6450000000D+00  0.1000000000D+01
 Atom O11      Shell   125 F   1     bf  349 -   355          0.000000000000          5.734595022949          0.000000000000
      0.1428000000D+01  0.1000000000D+01
 Atom O12      Shell   126 S   6     bf  356 -   356          0.000000000000          0.000000000000          5.734595022949
      0.2703238263D+05  0.5722733521D-03
      0.4052387139D+04  0.4435323349D-02
      0.9223272271D+03  0.2302010771D-01
      0.2612407099D+03  0.9282249067D-01
      0.8535464135D+02  0.2937850001D+00
      0.3103503524D+02  0.6740160450D+00
 Atom O12      Shell   127 S   2     bf  357 -   357          0.000000000000          0.000000000000          5.734595022949
      0.1226086073D+02  0.6383993703D+00
      0.4998707601D+01  0.3953458713D+00
 Atom O12      Shell   128 S   1     bf  358 -   358          0.000000000000          0.000000000000          5.734595022949
      0.1170310816D+01  0.1000000000D+01
 Atom O12      Shell   129 S   1     bf  359 -   359          0.000000000000          0.000000000000          5.734595022949
      0.4647474099D+00  0.1000000000D+01
 Atom O12      Shell   130 S   1     bf  360 -   360          0.000000000000          0.000000000000          5.734595022949
      0.1850453636D+00  0.1000000000D+01
 Atom O12      Shell   131 P   4     bf  361 -   363          0.000000000000          0.000000000000          5.734595022949
      0.6327495480D+02  0.1201833222D-01
      0.1462704938D+02  0.8300542179D-01
      0.4450122346D+01  0.3199174393D+00
      0.1527579965D+01  0.7071554292D+00
 Atom O12      Shell   132 P   1     bf  364 -   366          0.000000000000          0.000000000000          5.734595022949
      0.5293511794D+00  0.1000000000D+01
 Atom O12      Shell   133 P   1     bf  367 -   369          0.000000000000          0.000000000000          5.734595022949
      0.1747842127D+00  0.1000000000D+01
 Atom O12      Shell   134 D   1     bf  370 -   374          0.000000000000          0.000000000000          5.734595022949
      0.2314000000D+01  0.1000000000D+01
 Atom O12      Shell   135 D   1     bf  375 -   379          0.000000000000          0.000000000000          5.734595022949
      0.6450000000D+00  0.1000000000D+01
 Atom O12      Shell   136 F   1     bf  380 -   386          0.000000000000          0.000000000000          5.734595022949
      0.1428000000D+01  0.1000000000D+01
 Atom O13      Shell   137 S   6     bf  387 -   387          0.000000000000          0.000000000000         -5.734595022949
      0.2703238263D+05  0.5722733521D-03
      0.4052387139D+04  0.4435323349D-02
      0.9223272271D+03  0.2302010771D-01
      0.2612407099D+03  0.9282249067D-01
      0.8535464135D+02  0.2937850001D+00
      0.3103503524D+02  0.6740160450D+00
 Atom O13      Shell   138 S   2     bf  388 -   388          0.000000000000          0.000000000000         -5.734595022949
      0.1226086073D+02  0.6383993703D+00
      0.4998707601D+01  0.3953458713D+00
 Atom O13      Shell   139 S   1     bf  389 -   389          0.000000000000          0.000000000000         -5.734595022949
      0.1170310816D+01  0.1000000000D+01
 Atom O13      Shell   140 S   1     bf  390 -   390          0.000000000000          0.000000000000         -5.734595022949
      0.4647474099D+00  0.1000000000D+01
 Atom O13      Shell   141 S   1     bf  391 -   391          0.000000000000          0.000000000000         -5.734595022949
      0.1850453636D+00  0.1000000000D+01
 Atom O13      Shell   142 P   4     bf  392 -   394          0.000000000000          0.000000000000         -5.734595022949
      0.6327495480D+02  0.1201833222D-01
      0.1462704938D+02  0.8300542179D-01
      0.4450122346D+01  0.3199174393D+00
      0.1527579965D+01  0.7071554292D+00
 Atom O13      Shell   143 P   1     bf  395 -   397          0.000000000000          0.000000000000         -5.734595022949
      0.5293511794D+00  0.1000000000D+01
 Atom O13      Shell   144 P   1     bf  398 -   400          0.000000000000          0.000000000000         -5.734595022949
      0.1747842127D+00  0.1000000000D+01
 Atom O13      Shell   145 D   1     bf  401 -   405          0.000000000000          0.000000000000         -5.734595022949
      0.2314000000D+01  0.1000000000D+01
 Atom O13      Shell   146 D   1     bf  406 -   410          0.000000000000          0.000000000000         -5.734595022949
      0.6450000000D+00  0.1000000000D+01
 Atom O13      Shell   147 F   1     bf  411 -   417          0.000000000000          0.000000000000         -5.734595022949
      0.1428000000D+01  0.1000000000D+01
   417 basis functions,   714 primitive gaussians,   484 cartesian basis functions
    54 alpha electrons       54 beta electrons
       nuclear repulsion energy       988.7542996728 Hartrees.
 IExCor= 1009 DFT=T Ex+Corr=PBE1PBE ExCW=0 ScaHFX=  0.250000
 ScaDFX=  0.750000  0.750000  1.000000  1.000000 ScalE2=  1.000000  1.000000
 IRadAn=      5 IRanWt=     -1 IRanGd=            0 ICorTp=0 IEmpDi=  4
 NAtoms=   13 NActive=   13 NUniq=   13 SFac= 1.00D+00 NAtFMM=   60 NAOKFM=F Big=F
 Integral buffers will be    131072 words long.
 Raffenetti 2 integral format.
 Two-electron integral symmetry is turned off.
 Leave Link  301 at Wed Oct 14 12:02:14 2020, MaxMem=  7068979123 cpu:               0.6 elap:               0.1
 (Enter /opt/cms/q-ch/gaussian/A03/g16/l302.exe)
 NPDir=0 NMtPBC=     1 NCelOv=     1 NCel=       1 NClECP=     1 NCelD=      1
         NCelK=      1 NCelE2=     1 NClLst=     1 CellRange=     0.0.
 One-electron integrals computed using PRISM.
   1 Symmetry operations used in ECPInt.
 ECPInt:  NShTT=   10878 NPrTT=   38549 LenC2=   10159 LenP2D=   25745.
 LDataN:  DoStor=T MaxTD1= 6 Len=  172
 NBasis=   417 RedAO= T EigKep=  1.92D-04  NBF=   417
 NBsUse=   417 1.00D-06 EigRej= -1.00D+00 NBFU=   417
 Precomputing XC quadrature grid using
 IXCGrd= 4 IRadAn=           5 IRanWt=          -1 IRanGd=           0 AccXCQ= 0.00D+00.
 Generated NRdTot=       0 NPtTot=           0 NUsed=           0 NTot=          32
 NSgBfM=   477   477   477   477   477 MxSgAt=    13 MxSgA2=    13.
 Leave Link  302 at Wed Oct 14 12:02:15 2020, MaxMem=  7068979123 cpu:               3.4 elap:               0.5
 (Enter /opt/cms/q-ch/gaussian/A03/g16/l303.exe)
 DipDrv:  MaxL=1.
 Leave Link  303 at Wed Oct 14 12:02:16 2020, MaxMem=  7068979123 cpu:               0.8 elap:               0.2
 (Enter /opt/cms/q-ch/gaussian/A03/g16/l401.exe)
 ExpMin= 3.41D-02 ExpMax= 2.54D+05 ExpMxC= 2.46D+03 IAcc=3 IRadAn=         5 AccDes= 0.00D+00
 Harris functional with IExCor= 1009 and IRadAn=       5 diagonalized for initial guess.
 HarFok:  IExCor= 1009 AccDes= 0.00D+00 IRadAn=         5 IDoV= 1 UseB2=F ITyADJ=14
 ICtDFT=  3500011 ScaDFX=  1.000000  1.000000  1.000000  1.000000
 FoFCou: FMM=F IPFlag=           0 FMFlag=      100000 FMFlg1=           0
         NFxFlg=           0 DoJE=T BraDBF=F KetDBF=T FulRan=T
         wScrn=  0.000000 ICntrl=       500 IOpCl=  0 I1Cent=   200000004 NGrid=           0
         NMat0=    1 NMatS0=      1 NMatT0=    0 NMatD0=    1 NMtDS0=    0 NMtDT0=    0
 Symmetry not used in FoFCou.
 Harris En= -1724.01265442279    
 JPrj=0 DoOrth=F DoCkMO=F.
 Leave Link  401 at Wed Oct 14 12:02:19 2020, MaxMem=  7068979123 cpu:              14.2 elap:               1.9
 (Enter /opt/cms/q-ch/gaussian/A03/g16/l502.exe)
 Two-electron integral symmetry not used.
 Closed shell SCF:
 Using DIIS extrapolation, IDIIS=  1040.
 NGot=  7068979123 LenX=  7068503692 LenY=  7068268952
 Requested convergence on RMS density matrix=1.00D-08 within 128 cycles.
 Requested convergence on MAX density matrix=1.00D-06.
 Requested convergence on             energy=1.00D-06.
 No special actions if energy rises.
 Fock matrices will be formed incrementally for  20 cycles.

 Cycle   1  Pass 1  IDiag  1:
 FoFJK:  IHMeth= 1 ICntrl=       0 DoSepK=F KAlg= 0 I1Cent=           0 FoldK=F
 IRaf= 880000000 NMat=       1 IRICut=       1 DoRegI=T DoRafI=F ISym2E= 0 IDoP0=0 IntGTp=1.
 FoFCou: FMM=F IPFlag=           0 FMFlag=      100000 FMFlg1=           0
         NFxFlg=           0 DoJE=F BraDBF=F KetDBF=F FulRan=T
         wScrn=  0.000000 ICntrl=         0 IOpCl=  0 I1Cent=           0 NGrid=           0
         NMat0=    1 NMatS0=      1 NMatT0=    0 NMatD0=    1 NMtDS0=    0 NMtDT0=    0
 Symmetry not used in FoFCou.
 E= -1722.53649863758    
 DIIS: error= 8.82D-02 at cycle   1 NSaved=   1.
 NSaved= 1 IEnMin= 1 EnMin= -1722.53649863758     IErMin= 1 ErrMin= 8.82D-02
 ErrMax= 8.82D-02  0.00D+00 EMaxC= 1.00D-01 BMatC= 2.11D+00 BMatP= 2.11D+00
 IDIUse=3 WtCom= 1.18D-01 WtEn= 8.82D-01
 Coeff-Com:  0.100D+01
 Coeff-En:   0.100D+01
 Coeff:      0.100D+01
 Gap=     0.405 Goal=   None    Shift=    0.000
 DSYEVD-2 returned Info=         835 IAlg= 4 N=   417 NDim=   417 NE2=    16950284 trying  DSYEV.
 GapD=    0.405 DampG=2.000 DampE=0.250 DampFc=0.5000 IDamp=-1.
 Damping current iteration by 5.00D-01
 RMSDP=6.43D-03 MaxDP=9.97D-01              OVMax= 8.29D-01

 Cycle   2  Pass 1  IDiag  1:
 RMSU=  3.22D-03    CP:  9.93D-01
 E= -1718.98286369581     Delta-E=        3.553634941768 Rises=F Damp=T
 DIIS: error= 1.54D-01 at cycle   2 NSaved=   2.
 NSaved= 2 IEnMin= 1 EnMin= -1722.53649863758     IErMin= 1 ErrMin= 8.82D-02
 ErrMax= 1.54D-01  0.00D+00 EMaxC= 1.00D-01 BMatC= 4.80D+00 BMatP= 2.11D+00
 IDIUse=2 WtCom= 0.00D+00 WtEn= 1.00D+00
 Coeff-En:   0.739D+00 0.261D+00
 Coeff:      0.739D+00 0.261D+00
 Gap=     0.122 Goal=   None    Shift=    0.000
 RMSDP=2.04D-03 MaxDP=3.03D-01 DE= 3.55D+00 OVMax= 6.80D-01

 Cycle   3  Pass 1  IDiag  1:
 RMSU=  1.94D-03    CP:  9.86D-01  8.04D-01
 E= -1719.36248526451     Delta-E=       -0.379621568693 Rises=F Damp=F
 DIIS: error= 2.32D-01 at cycle   3 NSaved=   3.
 NSaved= 3 IEnMin= 1 EnMin= -1722.53649863758     IErMin= 1 ErrMin= 8.82D-02
 ErrMax= 2.32D-01  0.00D+00 EMaxC= 1.00D-01 BMatC= 9.08D+00 BMatP= 2.11D+00
 IDIUse=2 WtCom= 0.00D+00 WtEn= 1.00D+00
 Coeff-En:   0.676D+00 0.000D+00 0.324D+00
 Coeff:      0.676D+00 0.000D+00 0.324D+00
 Gap=     0.380 Goal=   None    Shift=    0.000
 RMSDP=1.83D-03 MaxDP=2.04D-01 DE=-3.80D-01 OVMax= 3.25D-01

 Cycle   4  Pass 1  IDiag  1:
 RMSU=  7.77D-04    CP:  9.91D-01  3.51D-01  5.93D-01
 E= -1723.63390044884     Delta-E=       -4.271415184334 Rises=F Damp=F
 DIIS: error= 4.65D-02 at cycle   4 NSaved=   4.
 NSaved= 4 IEnMin= 4 EnMin= -1723.63390044884     IErMin= 4 ErrMin= 4.65D-02
 ErrMax= 4.65D-02  0.00D+00 EMaxC= 1.00D-01 BMatC= 4.26D-01 BMatP= 2.11D+00
 IDIUse=3 WtCom= 5.35D-01 WtEn= 4.65D-01
 Coeff-Com:  0.302D+00-0.607D-01 0.395D-01 0.719D+00
 Coeff-En:   0.245D+00 0.000D+00 0.000D+00 0.755D+00
 Coeff:      0.276D+00-0.325D-01 0.212D-01 0.736D+00
 Gap=     0.221 Goal=   None    Shift=    0.000
 RMSDP=8.52D-04 MaxDP=6.76D-02 DE=-4.27D+00 OVMax= 1.07D-01

 Cycle   5  Pass 1  IDiag  1:
 RMSU=  6.26D-04    CP:  9.96D-01  2.02D-01  5.20D-01  6.36D-01
 E= -1723.78205756477     Delta-E=       -0.148157115927 Rises=F Damp=F
 DIIS: error= 2.65D-02 at cycle   5 NSaved=   5.
 NSaved= 5 IEnMin= 5 EnMin= -1723.78205756477     IErMin= 5 ErrMin= 2.65D-02
 ErrMax= 2.65D-02  0.00D+00 EMaxC= 1.00D-01 BMatC= 1.38D-01 BMatP= 4.26D-01
 IDIUse=3 WtCom= 7.35D-01 WtEn= 2.65D-01
 EnCoef did     7 forward-backward iterations
 Coeff-Com:  0.920D-01 0.263D-01-0.675D-01 0.498D+00 0.451D+00
 Coeff-En:   0.129D-01 0.000D+00 0.000D+00 0.329D+00 0.658D+00
 Coeff:      0.711D-01 0.193D-01-0.496D-01 0.453D+00 0.506D+00
 Gap=     0.209 Goal=   None    Shift=    0.000
 RMSDP=4.81D-04 MaxDP=2.18D-02 DE=-1.48D-01 OVMax= 5.54D-02

 Cycle   6  Pass 1  IDiag  1:
 RMSU=  1.14D-04    CP:  9.94D-01  1.99D-01  4.18D-01  8.92D-01  4.03D-01
 E= -1723.85318045542     Delta-E=       -0.071122890650 Rises=F Damp=F
 DIIS: error= 1.71D-02 at cycle   6 NSaved=   6.
 NSaved= 6 IEnMin= 6 EnMin= -1723.85318045542     IErMin= 6 ErrMin= 1.71D-02
 ErrMax= 1.71D-02  0.00D+00 EMaxC= 1.00D-01 BMatC= 4.76D-02 BMatP= 1.38D-01
 IDIUse=3 WtCom= 8.29D-01 WtEn= 1.71D-01
 EnCoef did     3 forward-backward iterations
 Coeff-Com:  0.125D-02 0.680D-02-0.144D-01 0.223D+00 0.313D+00 0.470D+00
 Coeff-En:   0.000D+00 0.000D+00 0.000D+00 0.139D+00 0.182D+00 0.679D+00
 Coeff:      0.104D-02 0.563D-02-0.119D-01 0.209D+00 0.290D+00 0.506D+00
 Gap=     0.226 Goal=   None    Shift=    0.000
 DSYEVD-2 returned Info=         835 IAlg= 4 N=   417 NDim=   417 NE2=    16950284 trying  DSYEV.
 RMSDP=2.57D-04 MaxDP=2.93D-02 DE=-7.11D-02 OVMax= 5.52D-02

 Cycle   7  Pass 1  IDiag  1:
 RMSU=  8.49D-05    CP:  9.95D-01  2.44D-01  5.10D-01  8.29D-01  4.70D-01
                    CP:  6.28D-01
 E= -1723.87550792262     Delta-E=       -0.022327467201 Rises=F Damp=F
 DIIS: error= 8.13D-03 at cycle   7 NSaved=   7.
 NSaved= 7 IEnMin= 7 EnMin= -1723.87550792262     IErMin= 7 ErrMin= 8.13D-03
 ErrMax= 8.13D-03  0.00D+00 EMaxC= 1.00D-01 BMatC= 9.90D-03 BMatP= 4.76D-02
 IDIUse=3 WtCom= 9.19D-01 WtEn= 8.13D-02
 Coeff-Com: -0.400D-02 0.915D-03-0.591D-02 0.573D-01 0.131D+00 0.342D+00
 Coeff-Com:  0.478D+00
 Coeff-En:   0.000D+00 0.000D+00 0.000D+00 0.000D+00 0.000D+00 0.255D+00
 Coeff-En:   0.745D+00
 Coeff:     -0.368D-02 0.840D-03-0.543D-02 0.527D-01 0.120D+00 0.335D+00
 Coeff:      0.500D+00
 Gap=     0.222 Goal=   None    Shift=    0.000
 RMSDP=8.20D-05 MaxDP=8.75D-03 DE=-2.23D-02 OVMax= 1.71D-02

 Cycle   8  Pass 1  IDiag  1:
 RMSU=  1.37D-05    CP:  9.95D-01  2.28D-01  4.86D-01  8.45D-01  4.97D-01
                    CP:  6.30D-01  6.03D-01
 E= -1723.88095005118     Delta-E=       -0.005442128565 Rises=F Damp=F
 DIIS: error= 2.65D-04 at cycle   8 NSaved=   8.
 NSaved= 8 IEnMin= 8 EnMin= -1723.88095005118     IErMin= 8 ErrMin= 2.65D-04
 ErrMax= 2.65D-04  0.00D+00 EMaxC= 1.00D-01 BMatC= 2.01D-05 BMatP= 9.90D-03
 IDIUse=3 WtCom= 9.97D-01 WtEn= 2.65D-03
 Coeff-Com: -0.755D-03 0.285D-03-0.449D-03-0.147D-02-0.138D-02 0.376D-01
 Coeff-Com:  0.675D-01 0.899D+00
 Coeff-En:   0.000D+00 0.000D+00 0.000D+00 0.000D+00 0.000D+00 0.000D+00
 Coeff-En:   0.000D+00 0.100D+01
 Coeff:     -0.753D-03 0.284D-03-0.447D-03-0.146D-02-0.138D-02 0.375D-01
 Coeff:      0.673D-01 0.899D+00
 Gap=     0.222 Goal=   None    Shift=    0.000
 RMSDP=6.17D-06 MaxDP=3.75D-04 DE=-5.44D-03 OVMax= 1.06D-03

 Cycle   9  Pass 1  IDiag  1:
 RMSU=  2.72D-06    CP:  9.95D-01  2.28D-01  4.85D-01  8.49D-01  4.94D-01
                    CP:  6.52D-01  6.33D-01  1.08D+00
 E= -1723.88096671344     Delta-E=       -0.000016662257 Rises=F Damp=F
 DIIS: error= 3.46D-05 at cycle   9 NSaved=   9.
 NSaved= 9 IEnMin= 9 EnMin= -1723.88096671344     IErMin= 9 ErrMin= 3.46D-05
 ErrMax= 3.46D-05  0.00D+00 EMaxC= 1.00D-01 BMatC= 1.54D-07 BMatP= 2.01D-05
 IDIUse=1 WtCom= 1.00D+00 WtEn= 0.00D+00
 Coeff-Com:  0.342D-03 0.521D-04-0.130D-03-0.506D-03-0.295D-02-0.107D-01
 Coeff-Com: -0.963D-02 0.163D-01 0.101D+01
 Coeff:      0.342D-03 0.521D-04-0.130D-03-0.506D-03-0.295D-02-0.107D-01
 Coeff:     -0.963D-02 0.163D-01 0.101D+01
 Gap=     0.222 Goal=   None    Shift=    0.000
 DSYEVD-2 returned Info=         626 IAlg= 4 N=   417 NDim=   417 NE2=    16950284 trying  DSYEV.
 RMSDP=1.78D-06 MaxDP=1.58D-04 DE=-1.67D-05 OVMax= 3.70D-04

 Cycle  10  Pass 1  IDiag  1:
 RMSU=  5.18D-07    CP:  9.95D-01  2.28D-01  4.85D-01  8.50D-01  4.93D-01
                    CP:  6.50D-01  6.46D-01  1.15D+00  1.08D+00
 E= -1723.88096688579     Delta-E=       -0.000000172354 Rises=F Damp=F
 DIIS: error= 4.63D-05 at cycle  10 NSaved=  10.
 NSaved=10 IEnMin=10 EnMin= -1723.88096688579     IErMin= 9 ErrMin= 3.46D-05
 ErrMax= 4.63D-05  0.00D+00 EMaxC= 1.00D-01 BMatC= 3.83D-07 BMatP= 1.54D-07
 IDIUse=1 WtCom= 1.00D+00 WtEn= 0.00D+00
 Coeff-Com:  0.271D-04-0.569D-05 0.902D-05-0.456D-04 0.455D-03-0.779D-03
 Coeff-Com: -0.690D-02-0.420D-01-0.307D-02 0.105D+01
 Coeff:      0.271D-04-0.569D-05 0.902D-05-0.456D-04 0.455D-03-0.779D-03
 Coeff:     -0.690D-02-0.420D-01-0.307D-02 0.105D+01
 Gap=     0.222 Goal=   None    Shift=    0.000
 RMSDP=5.75D-07 MaxDP=4.97D-05 DE=-1.72D-07 OVMax= 1.13D-04

 Cycle  11  Pass 1  IDiag  1:
 RMSU=  6.00D-08    CP:  9.95D-01  2.28D-01  4.85D-01  8.50D-01  4.94D-01
                    CP:  6.51D-01  6.45D-01  1.16D+00  1.13D+00  1.21D+00
 E= -1723.88096710853     Delta-E=       -0.000000222736 Rises=F Damp=F
 DIIS: error= 3.37D-06 at cycle  11 NSaved=  11.
 NSaved=11 IEnMin=11 EnMin= -1723.88096710853     IErMin=11 ErrMin= 3.37D-06
 ErrMax= 3.37D-06  0.00D+00 EMaxC= 1.00D-01 BMatC= 1.98D-09 BMatP= 1.54D-07
 IDIUse=1 WtCom= 1.00D+00 WtEn= 0.00D+00
 Coeff-Com: -0.150D-05 0.232D-06-0.138D-06 0.806D-05 0.635D-04 0.169D-03
 Coeff-Com: -0.384D-03-0.334D-03-0.146D-01 0.325D-01 0.983D+00
 Coeff:     -0.150D-05 0.232D-06-0.138D-06 0.806D-05 0.635D-04 0.169D-03
 Coeff:     -0.384D-03-0.334D-03-0.146D-01 0.325D-01 0.983D+00
 Gap=     0.222 Goal=   None    Shift=    0.000
 DSYEVD-2 returned Info=         835 IAlg= 4 N=   417 NDim=   417 NE2=    16950284 trying  DSYEV.
 RMSDP=4.19D-08 MaxDP=3.56D-06 DE=-2.23D-07 OVMax= 6.69D-06

 Cycle  12  Pass 1  IDiag  1:
 RMSU=  6.94D-09    CP:  9.95D-01  2.28D-01  4.85D-01  8.50D-01  4.94D-01
                    CP:  6.51D-01  6.45D-01  1.16D+00  1.14D+00  1.23D+00
                    CP:  1.06D+00
 E= -1723.88096710958     Delta-E=       -0.000000001053 Rises=F Damp=F
 DIIS: error= 1.73D-07 at cycle  12 NSaved=  12.
 NSaved=12 IEnMin=12 EnMin= -1723.88096710958     IErMin=12 ErrMin= 1.73D-07
 ErrMax= 1.73D-07  0.00D+00 EMaxC= 1.00D-01 BMatC= 6.15D-12 BMatP= 1.98D-09
 IDIUse=1 WtCom= 1.00D+00 WtEn= 0.00D+00
 Coeff-Com: -0.153D-06 0.133D-07-0.842D-07 0.170D-05 0.229D-05 0.442D-05
 Coeff-Com:  0.231D-04 0.328D-03-0.548D-03-0.473D-02 0.397D-01 0.965D+00
 Coeff:     -0.153D-06 0.133D-07-0.842D-07 0.170D-05 0.229D-05 0.442D-05
 Coeff:      0.231D-04 0.328D-03-0.548D-03-0.473D-02 0.397D-01 0.965D+00
 Gap=     0.222 Goal=   None    Shift=    0.000
 DSYEVD-2 returned Info=         835 IAlg= 4 N=   417 NDim=   417 NE2=    16950284 trying  DSYEV.
 RMSDP=2.44D-09 MaxDP=1.73D-07 DE=-1.05D-09 OVMax= 3.04D-07

 SCF Done:  E(RPBE1PBE) =  -1723.88096711     A.U. after   12 cycles
            NFock= 12  Conv=0.24D-08     -V/T= 2.0023
 KE= 1.719932849951D+03 PE=-6.052133886036D+03 EE= 1.619565769302D+03
 Leave Link  502 at Wed Oct 14 12:04:21 2020, MaxMem=  7068979123 cpu:             979.5 elap:             122.5
 (Enter /opt/cms/q-ch/gaussian/A03/g16/l601.exe)
 Copying SCF densities to generalized density rwf, IOpCl= 0 IROHF=0.

 **********************************************************************

            Population analysis using the SCF density.

 **********************************************************************

 Alpha  occ. eigenvalues -- -216.03420 -24.86412 -21.11963 -21.11963 -21.11963
 Alpha  occ. eigenvalues --  -19.30381 -19.30381 -19.30381 -19.30380 -19.30380
 Alpha  occ. eigenvalues --  -19.30380 -10.36002 -10.36002 -10.36002 -10.36000
 Alpha  occ. eigenvalues --  -10.36000 -10.36000  -2.94785  -1.88083  -1.88083
 Alpha  occ. eigenvalues --   -1.88083  -1.19061  -1.18948  -1.18948  -1.18948
 Alpha  occ. eigenvalues --   -1.18905  -1.18905  -0.64742  -0.60092  -0.60092
 Alpha  occ. eigenvalues --   -0.60092  -0.59723  -0.59723  -0.53411  -0.51157
 Alpha  occ. eigenvalues --   -0.51157  -0.51157  -0.50740  -0.50740  -0.50740
 Alpha  occ. eigenvalues --   -0.49140  -0.49140  -0.49140  -0.48421  -0.48421
 Alpha  occ. eigenvalues --   -0.48421  -0.47233  -0.47233  -0.43734  -0.43734
 Alpha  occ. eigenvalues --   -0.43734  -0.27122  -0.27122  -0.27122
 Alpha virt. eigenvalues --   -0.04943  -0.04943  -0.04943  -0.02949  -0.02949
 Alpha virt. eigenvalues --   -0.02949  -0.00491  -0.00491  -0.00491   0.01141
 Alpha virt. eigenvalues --    0.02566   0.02566   0.02933   0.02933   0.02933
 Alpha virt. eigenvalues --    0.09481   0.09481   0.09481   0.09845   0.09845
 Alpha virt. eigenvalues --    0.09845   0.11839   0.11839   0.21341   0.25798
 Alpha virt. eigenvalues --    0.25798   0.25798   0.27469   0.27469   0.27469
 Alpha virt. eigenvalues --    0.28338   0.28338   0.31949   0.37380   0.37380
 Alpha virt. eigenvalues --    0.37380   0.37703   0.37703   0.37703   0.38904
 Alpha virt. eigenvalues --    0.38904   0.40316   0.40316   0.40316   0.42088
 Alpha virt. eigenvalues --    0.45844   0.47366   0.47366   0.48113   0.48113
 Alpha virt. eigenvalues --    0.48113   0.52117   0.52117   0.52117   0.52935
 Alpha virt. eigenvalues --    0.52935   0.52935   0.53724   0.54866   0.54866
 Alpha virt. eigenvalues --    0.54866   0.60488   0.60488   0.60488   0.62215
 Alpha virt. eigenvalues --    0.62215   0.62215   0.66267   0.66267   0.71794
 Alpha virt. eigenvalues --    0.71794   0.71794   0.72879   0.72879   0.73254
 Alpha virt. eigenvalues --    0.73254   0.73254   0.77848   0.77848   0.77848
 Alpha virt. eigenvalues --    0.81474   0.81474   0.81474   0.83791   0.85543
 Alpha virt. eigenvalues --    0.86071   0.86071   0.86071   0.91117   0.91117
 Alpha virt. eigenvalues --    0.99339   1.01337   1.01337   1.04561   1.04561
 Alpha virt. eigenvalues --    1.04561   1.16969   1.17370   1.17370   1.17370
 Alpha virt. eigenvalues --    1.17802   1.17802   1.18143   1.18143   1.18143
 Alpha virt. eigenvalues --    1.25406   1.25406   1.25406   1.27788   1.27788
 Alpha virt. eigenvalues --    1.27788   1.33577   1.33577   1.37940   1.37940
 Alpha virt. eigenvalues --    1.37940   1.39074   1.41604   1.41604   1.41604
 Alpha virt. eigenvalues --    1.44066   1.50503   1.50503   1.50503   1.52397
 Alpha virt. eigenvalues --    1.52397   1.52397   1.55578   1.55578   1.57557
 Alpha virt. eigenvalues --    1.57557   1.57557   1.59937   1.59937   1.59937
 Alpha virt. eigenvalues --    1.63906   1.65506   1.65506   1.71737   1.71737
 Alpha virt. eigenvalues --    1.83525   1.83525   1.83525   1.91257   1.91257
 Alpha virt. eigenvalues --    1.91257   1.96445   1.96445   1.96445   2.00351
 Alpha virt. eigenvalues --    2.00351   2.00351   2.11717   2.11717   2.11717
 Alpha virt. eigenvalues --    2.12507   2.12507   2.12507   2.21540   2.21540
 Alpha virt. eigenvalues --    2.22336   2.23690   2.23690   2.23690   2.29315
 Alpha virt. eigenvalues --    2.29315   2.29315   2.38681   2.38681   2.45241
 Alpha virt. eigenvalues --    2.45241   2.45241   2.57220   2.60324   2.60324
 Alpha virt. eigenvalues --    2.60324   2.63476   2.63476   2.63476   2.64520
 Alpha virt. eigenvalues --    2.64520   2.64520   2.66512   2.66512   2.66512
 Alpha virt. eigenvalues --    2.74732   2.74732   2.74732   2.77214   2.78467
 Alpha virt. eigenvalues --    2.78467   2.78467   2.82469   2.82469   2.82999
 Alpha virt. eigenvalues --    2.82999   2.82999   2.84335   2.84335   2.84335
 Alpha virt. eigenvalues --    2.86654   2.88416   2.93193   2.93193   2.93193
 Alpha virt. eigenvalues --    2.99524   2.99524   2.99524   3.00313   3.00313
 Alpha virt. eigenvalues --    3.01092   3.01092   3.01092   3.01923   3.01923
 Alpha virt. eigenvalues --    3.01923   3.02727   3.02727   3.03092   3.07690
 Alpha virt. eigenvalues --    3.07690   3.07690   3.09348   3.09348   3.09348
 Alpha virt. eigenvalues --    3.12603   3.13942   3.13942   3.15244   3.15506
 Alpha virt. eigenvalues --    3.15506   3.15506   3.19883   3.19883   3.19883
 Alpha virt. eigenvalues --    3.21205   3.22368   3.22368   3.29608   3.29608
 Alpha virt. eigenvalues --    3.29608   3.30875   3.32351   3.32351   3.32351
 Alpha virt. eigenvalues --    3.35611   3.35611   3.35611   3.51807   3.51807
 Alpha virt. eigenvalues --    3.59800   3.59800   3.59800   3.60306   3.60306
 Alpha virt. eigenvalues --    3.60306   3.79712   3.79712   3.83103   3.83103
 Alpha virt. eigenvalues --    3.83103   3.87383   3.87383   3.87383   3.92162
 Alpha virt. eigenvalues --    3.92162   3.92162   4.02923   4.11811   4.11811
 Alpha virt. eigenvalues --    4.15329   4.15329   4.15329   4.58950   4.81936
 Alpha virt. eigenvalues --    4.81936   4.81936   4.88106   4.88106   5.09189
 Alpha virt. eigenvalues --    5.09189   5.09189   5.09238   5.09238   5.09238
 Alpha virt. eigenvalues --    5.09303   5.09303   5.09303   5.09380   5.09380
 Alpha virt. eigenvalues --    5.09380   5.47807   5.47915   5.47915   5.49388
 Alpha virt. eigenvalues --    5.49388   5.49388   5.50168   5.50490   5.50490
 Alpha virt. eigenvalues --    5.50490   5.61733   5.61733   6.23658   6.23658
 Alpha virt. eigenvalues --    6.23658   6.23751   6.23751   6.23751   6.24245
 Alpha virt. eigenvalues --    6.26205   6.26205   6.26297   6.26297   6.26297
 Alpha virt. eigenvalues --    6.26396   6.26396   6.26396   6.28242   6.30210
 Alpha virt. eigenvalues --    6.30210   6.32592   6.32592   6.32592   6.35283
 Alpha virt. eigenvalues --    6.35283   6.35283   6.63329   6.63329   6.63329
 Alpha virt. eigenvalues --    6.64793   6.66773   6.66773   6.72593   6.72593
 Alpha virt. eigenvalues --    6.72593   6.72832   6.72832   6.72832   6.74021
 Alpha virt. eigenvalues --    6.74021   6.74021   6.79071   6.79071   6.79071
 Alpha virt. eigenvalues --    7.06600   7.10117   7.10117   7.10117   7.12811
 Alpha virt. eigenvalues --    7.12811  22.95882  22.95882  22.95882  23.52874
 Alpha virt. eigenvalues --   23.66605  23.66605  43.85258  43.85258  43.85258
 Alpha virt. eigenvalues --   43.94670  44.08587  44.08587
          Condensed to atoms (all electrons):
               1          2          3          4          5          6
     1  Cr  22.481218   0.314410   0.314410   0.314410   0.314410   0.314410
     2  C    0.314410   5.009627  -0.008739  -0.013958  -0.008739  -0.008739
     3  C    0.314410  -0.008739   5.009627  -0.008739  -0.013958  -0.008739
     4  C    0.314410  -0.013958  -0.008739   5.009627  -0.008739  -0.008739
     5  C    0.314410  -0.008739  -0.013958  -0.008739   5.009627  -0.008739
     6  C    0.314410  -0.008739  -0.008739  -0.008739  -0.008739   5.009627
     7  C    0.314410  -0.008739  -0.008739  -0.008739  -0.008739  -0.013958
     8  O   -0.018772   0.631556  -0.004084   0.000168  -0.004084  -0.004084
     9  O   -0.018772  -0.004084   0.631556  -0.004084   0.000168  -0.004084
    10  O   -0.018772   0.000168  -0.004084   0.631556  -0.004084  -0.004084
    11  O   -0.018772  -0.004084   0.000168  -0.004084   0.631556  -0.004084
    12  O   -0.018772  -0.004084  -0.004084  -0.004084  -0.004084   0.631556
    13  O   -0.018772  -0.004084  -0.004084  -0.004084  -0.004084   0.000168
               7          8          9         10         11         12
     1  Cr   0.314410  -0.018772  -0.018772  -0.018772  -0.018772  -0.018772
     2  C   -0.008739   0.631556  -0.004084   0.000168  -0.004084  -0.004084
     3  C   -0.008739  -0.004084   0.631556  -0.004084   0.000168  -0.004084
     4  C   -0.008739   0.000168  -0.004084   0.631556  -0.004084  -0.004084
     5  C   -0.008739  -0.004084   0.000168  -0.004084   0.631556  -0.004084
     6  C   -0.013958  -0.004084  -0.004084  -0.004084  -0.004084   0.631556
     7  C    5.009627  -0.004084  -0.004084  -0.004084  -0.004084   0.000168
     8  O   -0.004084   7.469205   0.000290  -0.000001   0.000290   0.000290
     9  O   -0.004084   0.000290   7.469205   0.000290  -0.000001   0.000290
    10  O   -0.004084  -0.000001   0.000290   7.469205   0.000290   0.000290
    11  O   -0.004084   0.000290  -0.000001   0.000290   7.469205   0.000290
    12  O    0.000168   0.000290   0.000290   0.000290   0.000290   7.469205
    13  O    0.631556   0.000290   0.000290   0.000290   0.000290  -0.000001
              13
     1  Cr  -0.018772
     2  C   -0.004084
     3  C   -0.004084
     4  C   -0.004084
     5  C   -0.004084
     6  C    0.000168
     7  C    0.631556
     8  O    0.000290
     9  O    0.000290
    10  O    0.000290
    11  O    0.000290
    12  O   -0.000001
    13  O    7.469205
 Mulliken charges:
               1
     1  Cr  -0.255046
     2  C    0.109490
     3  C    0.109490
     4  C    0.109490
     5  C    0.109490
     6  C    0.109490
     7  C    0.109490
     8  O   -0.066982
     9  O   -0.066982
    10  O   -0.066982
    11  O   -0.066982
    12  O   -0.066982
    13  O   -0.066982
 Sum of Mulliken charges =  -0.00000
 Mulliken charges with hydrogens summed into heavy atoms:
               1
     1  Cr  -0.255046
     2  C    0.109490
     3  C    0.109490
     4  C    0.109490
     5  C    0.109490
     6  C    0.109490
     7  C    0.109490
     8  O   -0.066982
     9  O   -0.066982
    10  O   -0.066982
    11  O   -0.066982
    12  O   -0.066982
    13  O   -0.066982
 Electronic spatial extent (au):  <R**2>=           2226.9100
 Charge=             -0.0000 electrons
 Dipole moment (field-independent basis, Debye):
    X=             -0.0000    Y=             -0.0000    Z=              0.0000  Tot=              0.0000
 Quadrupole moment (field-independent basis, Debye-Ang):
   XX=            -83.1125   YY=            -83.1125   ZZ=            -83.1125
   XY=             -0.0000   XZ=              0.0000   YZ=              0.0000
 Traceless Quadrupole moment (field-independent basis, Debye-Ang):
   XX=             -0.0000   YY=              0.0000   ZZ=              0.0000
   XY=             -0.0000   XZ=              0.0000   YZ=              0.0000
 Octapole moment (field-independent basis, Debye-Ang**2):
  XXX=             -0.0000  YYY=              0.0000  ZZZ=              0.0000  XYY=             -0.0000
  XXY=              0.0000  XXZ=             -0.0000  XZZ=             -0.0000  YZZ=              0.0000
  YYZ=             -0.0000  XYZ=              0.0000
 Hexadecapole moment (field-independent basis, Debye-Ang**3):
 XXXX=           -981.1115 YYYY=           -981.1115 ZZZZ=           -981.1115 XXXY=             -0.0000
 XXXZ=             -0.0000 YYYX=             -0.0000 YYYZ=             -0.0000 ZZZX=              0.0000
 ZZZY=             -0.0000 XXYY=           -282.6579 XXZZ=           -282.6579 YYZZ=           -282.6579
 XXYZ=             -0.0000 YYXZ=             -0.0000 ZZXY=              0.0000
 N-N= 9.887542996728D+02 E-N=-6.052133923543D+03  KE= 1.719932849951D+03
 No NMR shielding tensors so no spin-rotation constants.
 Leave Link  601 at Wed Oct 14 12:04:22 2020, MaxMem=  7068979123 cpu:               2.3 elap:               0.4
 (Enter /opt/cms/q-ch/gaussian/A03/g16/l607.exe)
 ******************************Gaussian NBO Version 3.1******************************
             N A T U R A L   A T O M I C   O R B I T A L   A N D
          N A T U R A L   B O N D   O R B I T A L   A N A L Y S I S
 ******************************Gaussian NBO Version 3.1******************************
       /RESON  / : Allow strongly delocalized NBO set

 Analyzing the SCF density

 Job title:                                                                 

 Storage needed:    523497 in NPA,    697021 in NBO (7068978096 available)
 GSVD:  LWork=       52865 too small for GESVD, short by      186987 words or      186987 for optimal perf.


 NATURAL POPULATIONS:  Natural atomic orbital occupancies 
                                                          
   NAO  Atom  No  lang   Type(AO)    Occupancy      Energy
 ----------------------------------------------------------
     1   Cr    1  S      Cor( 1S)     2.00000    -211.62040
     2   Cr    1  S      Cor( 2S)     1.99999     -27.98952
     3   Cr    1  S      Cor( 3S)     1.98056      -4.01547
     4   Cr    1  S      Val( 4S)     0.50061       0.28884
     5   Cr    1  S      Ryd( 5S)     0.00130       0.74341
     6   Cr    1  S      Ryd( 6S)     0.00001       3.00485
     7   Cr    1  px     Cor( 2p)     2.00000     -21.03454
     8   Cr    1  px     Cor( 3p)     1.99420      -1.91827
     9   Cr    1  px     Val( 4p)     0.53109       0.21854
    10   Cr    1  px     Ryd( 5p)     0.00023       2.77496
    11   Cr    1  py     Cor( 2p)     2.00000     -21.03454
    12   Cr    1  py     Cor( 3p)     1.99420      -1.91827
    13   Cr    1  py     Val( 4p)     0.53109       0.21854
    14   Cr    1  py     Ryd( 5p)     0.00023       2.77496
    15   Cr    1  pz     Cor( 2p)     2.00000     -21.03454
    16   Cr    1  pz     Cor( 3p)     1.99420      -1.91827
    17   Cr    1  pz     Val( 4p)     0.53109       0.21854
    18   Cr    1  pz     Ryd( 5p)     0.00023       2.77496
    19   Cr    1  dxy    Val( 3d)     1.62474      -0.21764
    20   Cr    1  dxy    Ryd( 5d)     0.00484       0.67064
    21   Cr    1  dxy    Ryd( 4d)     0.00101       0.39870
    22   Cr    1  dxy    Ryd( 6d)     0.00002       2.26703
    23   Cr    1  dxz    Val( 3d)     1.62474      -0.21764
    24   Cr    1  dxz    Ryd( 5d)     0.00484       0.67064
    25   Cr    1  dxz    Ryd( 4d)     0.00101       0.39870
    26   Cr    1  dxz    Ryd( 6d)     0.00002       2.26703
    27   Cr    1  dyz    Val( 3d)     1.62474      -0.21764
    28   Cr    1  dyz    Ryd( 5d)     0.00484       0.67064
    29   Cr    1  dyz    Ryd( 4d)     0.00101       0.39870
    30   Cr    1  dyz    Ryd( 6d)     0.00002       2.26703
    31   Cr    1  dx2y2  Val( 3d)     1.15887      -0.28141
    32   Cr    1  dx2y2  Ryd( 5d)     0.01311       0.91483
    33   Cr    1  dx2y2  Ryd( 4d)     0.00066       0.71293
    34   Cr    1  dx2y2  Ryd( 6d)     0.00009       3.13023
    35   Cr    1  dz2    Val( 3d)     1.15887      -0.28141
    36   Cr    1  dz2    Ryd( 5d)     0.01311       0.91483
    37   Cr    1  dz2    Ryd( 4d)     0.00066       0.71293
    38   Cr    1  dz2    Ryd( 6d)     0.00009       3.13023
    39   Cr    1  f(0)   Ryd( 4f)     0.00015       3.48140
    40   Cr    1  f(C1)  Ryd( 4f)     0.00006       3.28793
    41   Cr    1  f(S1)  Ryd( 4f)     0.00006       3.28793
    42   Cr    1  f(C2)  Ryd( 4f)     0.00001       3.17184
    43   Cr    1  f(S2)  Ryd( 4f)     0.00000       3.00677
    44   Cr    1  f(C3)  Ryd( 4f)     0.00010       3.36531
    45   Cr    1  f(S3)  Ryd( 4f)     0.00010       3.36531
 
    46    C    2  S      Cor( 1S)     1.99876     -10.18881
    47    C    2  S      Val( 2S)     1.04219      -0.29604
    48    C    2  S      Ryd( 4S)     0.02845       1.46721
    49    C    2  S      Ryd( 3S)     0.00013       1.37742
    50    C    2  S      Ryd( 5S)     0.00001      21.48066
    51    C    2  px     Val( 2p)     0.75986       0.02876
    52    C    2  px     Ryd( 3p)     0.01785       1.35509
    53    C    2  px     Ryd( 4p)     0.00010       1.63197
    54    C    2  py     Val( 2p)     0.57756      -0.10955
    55    C    2  py     Ryd( 3p)     0.00170       0.84408
    56    C    2  py     Ryd( 4p)     0.00006       1.16941
    57    C    2  pz     Val( 2p)     0.57756      -0.10955
    58    C    2  pz     Ryd( 3p)     0.00170       0.84408
    59    C    2  pz     Ryd( 4p)     0.00006       1.16941
    60    C    2  dxy    Ryd( 4d)     0.00126       3.45771
    61    C    2  dxy    Ryd( 3d)     0.00005       2.31625
    62    C    2  dxz    Ryd( 4d)     0.00126       3.45771
    63    C    2  dxz    Ryd( 3d)     0.00005       2.31625
    64    C    2  dyz    Ryd( 4d)     0.00003       2.64506
    65    C    2  dyz    Ryd( 3d)     0.00001       1.34223
    66    C    2  dx2y2  Ryd( 4d)     0.00036       3.43574
    67    C    2  dx2y2  Ryd( 3d)     0.00044       2.32935
    68    C    2  dz2    Ryd( 4d)     0.00014       2.92621
    69    C    2  dz2    Ryd( 3d)     0.00018       1.98609
    70    C    2  f(0)   Ryd( 4f)     0.00002       2.98748
    71    C    2  f(C1)  Ryd( 4f)     0.00015       3.46122
    72    C    2  f(S1)  Ryd( 4f)     0.00001       2.70984
    73    C    2  f(C2)  Ryd( 4f)     0.00007       3.10769
    74    C    2  f(S2)  Ryd( 4f)     0.00000       3.01563
    75    C    2  f(C3)  Ryd( 4f)     0.00024       3.64861
    76    C    2  f(S3)  Ryd( 4f)     0.00008       3.38533
 
    77    C    3  S      Cor( 1S)     1.99876     -10.18881
    78    C    3  S      Val( 2S)     1.04219      -0.29604
    79    C    3  S      Ryd( 4S)     0.02845       1.46721
    80    C    3  S      Ryd( 3S)     0.00013       1.37742
    81    C    3  S      Ryd( 5S)     0.00001      21.48066
    82    C    3  px     Val( 2p)     0.57756      -0.10955
    83    C    3  px     Ryd( 3p)     0.00170       0.84408
    84    C    3  px     Ryd( 4p)     0.00006       1.16941
    85    C    3  py     Val( 2p)     0.75986       0.02876
    86    C    3  py     Ryd( 3p)     0.01785       1.35509
    87    C    3  py     Ryd( 4p)     0.00010       1.63197
    88    C    3  pz     Val( 2p)     0.57756      -0.10955
    89    C    3  pz     Ryd( 3p)     0.00170       0.84408
    90    C    3  pz     Ryd( 4p)     0.00006       1.16941
    91    C    3  dxy    Ryd( 4d)     0.00126       3.45771
    92    C    3  dxy    Ryd( 3d)     0.00005       2.31625
    93    C    3  dxz    Ryd( 4d)     0.00003       2.64506
    94    C    3  dxz    Ryd( 3d)     0.00001       1.34223
    95    C    3  dyz    Ryd( 4d)     0.00126       3.45771
    96    C    3  dyz    Ryd( 3d)     0.00005       2.31625
    97    C    3  dx2y2  Ryd( 4d)     0.00036       3.43574
    98    C    3  dx2y2  Ryd( 3d)     0.00044       2.32935
    99    C    3  dz2    Ryd( 4d)     0.00014       2.92621
   100    C    3  dz2    Ryd( 3d)     0.00018       1.98609
   101    C    3  f(0)   Ryd( 4f)     0.00002       2.98748
   102    C    3  f(C1)  Ryd( 4f)     0.00001       2.70984
   103    C    3  f(S1)  Ryd( 4f)     0.00015       3.46122
   104    C    3  f(C2)  Ryd( 4f)     0.00007       3.10769
   105    C    3  f(S2)  Ryd( 4f)     0.00000       3.01563
   106    C    3  f(C3)  Ryd( 4f)     0.00008       3.38533
   107    C    3  f(S3)  Ryd( 4f)     0.00024       3.64861
 
   108    C    4  S      Cor( 1S)     1.99876     -10.18881
   109    C    4  S      Val( 2S)     1.04219      -0.29604
   110    C    4  S      Ryd( 4S)     0.02845       1.46721
   111    C    4  S      Ryd( 3S)     0.00013       1.37742
   112    C    4  S      Ryd( 5S)     0.00001      21.48066
   113    C    4  px     Val( 2p)     0.75986       0.02876
   114    C    4  px     Ryd( 3p)     0.01785       1.35509
   115    C    4  px     Ryd( 4p)     0.00010       1.63197
   116    C    4  py     Val( 2p)     0.57756      -0.10955
   117    C    4  py     Ryd( 3p)     0.00170       0.84408
   118    C    4  py     Ryd( 4p)     0.00006       1.16941
   119    C    4  pz     Val( 2p)     0.57756      -0.10955
   120    C    4  pz     Ryd( 3p)     0.00170       0.84408
   121    C    4  pz     Ryd( 4p)     0.00006       1.16941
   122    C    4  dxy    Ryd( 4d)     0.00126       3.45771
   123    C    4  dxy    Ryd( 3d)     0.00005       2.31625
   124    C    4  dxz    Ryd( 4d)     0.00126       3.45771
   125    C    4  dxz    Ryd( 3d)     0.00005       2.31625
   126    C    4  dyz    Ryd( 4d)     0.00003       2.64506
   127    C    4  dyz    Ryd( 3d)     0.00001       1.34223
   128    C    4  dx2y2  Ryd( 4d)     0.00036       3.43574
   129    C    4  dx2y2  Ryd( 3d)     0.00044       2.32935
   130    C    4  dz2    Ryd( 4d)     0.00014       2.92621
   131    C    4  dz2    Ryd( 3d)     0.00018       1.98609
   132    C    4  f(0)   Ryd( 4f)     0.00002       2.98748
   133    C    4  f(C1)  Ryd( 4f)     0.00015       3.46122
   134    C    4  f(S1)  Ryd( 4f)     0.00001       2.70984
   135    C    4  f(C2)  Ryd( 4f)     0.00007       3.10769
   136    C    4  f(S2)  Ryd( 4f)     0.00000       3.01563
   137    C    4  f(C3)  Ryd( 4f)     0.00024       3.64861
   138    C    4  f(S3)  Ryd( 4f)     0.00008       3.38533
 
   139    C    5  S      Cor( 1S)     1.99876     -10.18881
   140    C    5  S      Val( 2S)     1.04219      -0.29604
   141    C    5  S      Ryd( 4S)     0.02845       1.46721
   142    C    5  S      Ryd( 3S)     0.00013       1.37742
   143    C    5  S      Ryd( 5S)     0.00001      21.48066
   144    C    5  px     Val( 2p)     0.57756      -0.10955
   145    C    5  px     Ryd( 3p)     0.00170       0.84408
   146    C    5  px     Ryd( 4p)     0.00006       1.16941
   147    C    5  py     Val( 2p)     0.75986       0.02876
   148    C    5  py     Ryd( 3p)     0.01785       1.35509
   149    C    5  py     Ryd( 4p)     0.00010       1.63197
   150    C    5  pz     Val( 2p)     0.57756      -0.10955
   151    C    5  pz     Ryd( 3p)     0.00170       0.84408
   152    C    5  pz     Ryd( 4p)     0.00006       1.16941
   153    C    5  dxy    Ryd( 4d)     0.00126       3.45771
   154    C    5  dxy    Ryd( 3d)     0.00005       2.31625
   155    C    5  dxz    Ryd( 4d)     0.00003       2.64506
   156    C    5  dxz    Ryd( 3d)     0.00001       1.34223
   157    C    5  dyz    Ryd( 4d)     0.00126       3.45771
   158    C    5  dyz    Ryd( 3d)     0.00005       2.31625
   159    C    5  dx2y2  Ryd( 4d)     0.00036       3.43574
   160    C    5  dx2y2  Ryd( 3d)     0.00044       2.32935
   161    C    5  dz2    Ryd( 4d)     0.00014       2.92621
   162    C    5  dz2    Ryd( 3d)     0.00018       1.98609
   163    C    5  f(0)   Ryd( 4f)     0.00002       2.98748
   164    C    5  f(C1)  Ryd( 4f)     0.00001       2.70984
   165    C    5  f(S1)  Ryd( 4f)     0.00015       3.46122
   166    C    5  f(C2)  Ryd( 4f)     0.00007       3.10769
   167    C    5  f(S2)  Ryd( 4f)     0.00000       3.01563
   168    C    5  f(C3)  Ryd( 4f)     0.00008       3.38533
   169    C    5  f(S3)  Ryd( 4f)     0.00024       3.64861
 
   170    C    6  S      Cor( 1S)     1.99876     -10.18881
   171    C    6  S      Val( 2S)     1.04219      -0.29604
   172    C    6  S      Ryd( 4S)     0.02845       1.46721
   173    C    6  S      Ryd( 3S)     0.00013       1.37742
   174    C    6  S      Ryd( 5S)     0.00001      21.48066
   175    C    6  px     Val( 2p)     0.57756      -0.10955
   176    C    6  px     Ryd( 3p)     0.00170       0.84408
   177    C    6  px     Ryd( 4p)     0.00006       1.16941
   178    C    6  py     Val( 2p)     0.57756      -0.10955
   179    C    6  py     Ryd( 3p)     0.00170       0.84408
   180    C    6  py     Ryd( 4p)     0.00006       1.16941
   181    C    6  pz     Val( 2p)     0.75986       0.02876
   182    C    6  pz     Ryd( 3p)     0.01785       1.35509
   183    C    6  pz     Ryd( 4p)     0.00010       1.63197
   184    C    6  dxy    Ryd( 4d)     0.00003       2.64506
   185    C    6  dxy    Ryd( 3d)     0.00001       1.34223
   186    C    6  dxz    Ryd( 4d)     0.00126       3.45771
   187    C    6  dxz    Ryd( 3d)     0.00005       2.31625
   188    C    6  dyz    Ryd( 4d)     0.00126       3.45771
   189    C    6  dyz    Ryd( 3d)     0.00005       2.31625
   190    C    6  dx2y2  Ryd( 4d)     0.00003       2.67145
   191    C    6  dx2y2  Ryd( 3d)     0.00005       1.81446
   192    C    6  dz2    Ryd( 4d)     0.00047       3.69051
[...]
   308. RY*(  19) O  10                  0.00000     6.28183   
   309. RY*(  20) O  10                  0.00000     5.31802   
   310. RY*(  21) O  10                  0.00000     5.66925   
   311. RY*(  22) O  10                  0.00000     5.11279   
   312. RY*(  23) O  10                  0.00000     5.47716   
   313. RY*(  24) O  10                  0.00000     5.32054   
   314. RY*(  25) O  10                  0.00000     5.89197   
   315. RY*(  26) O  10                  0.00000     5.68239   
   316. RY*(   1) O  11                  0.00294     1.04876   
   317. RY*(   2) O  11                  0.00060     0.86184   
   318. RY*(   3) O  11                  0.00060     0.86184   
   319. RY*(   4) O  11                  0.00022     0.98232   
   320. RY*(   5) O  11                  0.00006     1.64025   
   321. RY*(   6) O  11                  0.00006     1.64025   
   322. RY*(   7) O  11                  0.00002     4.60871   
   323. RY*(   8) O  11                  0.00001     2.23249   
   324. RY*(   9) O  11                  0.00000     2.76801   
   325. RY*(  10) O  11                  0.00000    42.92157   
   326. RY*(  11) O  11                  0.00000     6.27113   
   327. RY*(  12) O  11                  0.00001     1.43093   
   328. RY*(  13) O  11                  0.00000     6.13745   
   329. RY*(  14) O  11                  0.00000     2.80872   
   330. RY*(  15) O  11                  0.00000     6.27113   
   331. RY*(  16) O  11                  0.00000     2.76801   
   332. RY*(  17) O  11                  0.00000     6.48588   
   333. RY*(  18) O  11                  0.00001     1.67358   
   334. RY*(  19) O  11                  0.00000     6.28183   
   335. RY*(  20) O  11                  0.00000     5.31802   
   336. RY*(  21) O  11                  0.00000     5.11279   
   337. RY*(  22) O  11                  0.00000     5.66925   
   338. RY*(  23) O  11                  0.00000     5.47716   
   339. RY*(  24) O  11                  0.00000     5.32054   
   340. RY*(  25) O  11                  0.00000     5.68239   
   341. RY*(  26) O  11                  0.00000     5.89197   
   342. RY*(   1) O  12                  0.00294     1.04876   
   343. RY*(   2) O  12                  0.00060     0.86184   
   344. RY*(   3) O  12                  0.00060     0.86184   
   345. RY*(   4) O  12                  0.00022     0.98232   
   346. RY*(   5) O  12                  0.00006     1.64025   
   347. RY*(   6) O  12                  0.00006     1.64025   
   348. RY*(   7) O  12                  0.00002     4.82171   
   349. RY*(   8) O  12                  0.00000     2.78935   
   350. RY*(   9) O  12                  0.00001     2.33495   
   351. RY*(  10) O  12                  0.00001     1.43093   
   352. RY*(  11) O  12                  0.00000     6.13745   
   353. RY*(  12) O  12                  0.00000    42.82019   
   354. RY*(  13) O  12                  0.00000     6.27113   
   355. RY*(  14) O  12                  0.00000     2.76801   
   356. RY*(  15) O  12                  0.00000     6.27113   
   357. RY*(  16) O  12                  0.00001     1.43396   
   358. RY*(  17) O  12                  0.00000     6.14729   
   359. RY*(  18) O  12                  0.00000     2.76801   
   360. RY*(  19) O  12                  0.00000     6.62418   
   361. RY*(  20) O  12                  0.00000     6.27505   
   362. RY*(  21) O  12                  0.00000     5.72271   
   363. RY*(  22) O  12                  0.00000     5.72271   
   364. RY*(  23) O  12                  0.00000     5.32734   
   365. RY*(  24) O  12                  0.00000     5.32054   
   366. RY*(  25) O  12                  0.00000     5.07247   
   367. RY*(  26) O  12                  0.00000     5.07247   
   368. RY*(   1) O  13                  0.00294     1.04876   
   369. RY*(   2) O  13                  0.00060     0.86184   
   370. RY*(   3) O  13                  0.00060     0.86184   
   371. RY*(   4) O  13                  0.00022     0.98232   
   372. RY*(   5) O  13                  0.00006     1.64025   
   373. RY*(   6) O  13                  0.00006     1.64025   
   374. RY*(   7) O  13                  0.00002     4.82171   
   375. RY*(   8) O  13                  0.00000     2.78935   
   376. RY*(   9) O  13                  0.00001     2.33495   
   377. RY*(  10) O  13                  0.00001     1.43093   
   378. RY*(  11) O  13                  0.00000     6.13745   
   379. RY*(  12) O  13                  0.00000    42.82019   
   380. RY*(  13) O  13                  0.00000     6.27113   
   381. RY*(  14) O  13                  0.00000     2.76801   
   382. RY*(  15) O  13                  0.00000     6.27113   
   383. RY*(  16) O  13                  0.00001     1.43396   
   384. RY*(  17) O  13                  0.00000     6.14729   
   385. RY*(  18) O  13                  0.00000     2.76801   
   386. RY*(  19) O  13                  0.00000     6.62418   
   387. RY*(  20) O  13                  0.00000     6.27505   
   388. RY*(  21) O  13                  0.00000     5.72271   
   389. RY*(  22) O  13                  0.00000     5.72271   
   390. RY*(  23) O  13                  0.00000     5.32734   
   391. RY*(  24) O  13                  0.00000     5.32054   
   392. RY*(  25) O  13                  0.00000     5.07247   
   393. RY*(  26) O  13                  0.00000     5.07247   
   394. BD*(   1)Cr   1 - C   2          0.05329     0.40377   
   395. BD*(   1)Cr   1 - C   3          0.05329     0.40377   
   396. BD*(   1)Cr   1 - C   4          0.05329     0.40377   
   397. BD*(   1)Cr   1 - C   5          0.05329     0.40377   
   398. BD*(   1)Cr   1 - C   6          0.05329     0.40377   
   399. BD*(   1)Cr   1 - C   7          0.05329     0.40377   
   400. BD*(   1) C   2 - O   8          0.00773     0.70951   
   401. BD*(   2) C   2 - O   8          0.11058     0.03038  404(r),410(r),407(r),414(r)
                                                    417(r),239(g),86(g),395(v)
                                                    397(v)
   402. BD*(   3) C   2 - O   8          0.11058     0.03038  416(r),413(r),408(r),405(r)
                                                    411(r),240(g),87(g),398(v)
                                                    399(v)
   403. BD*(   1) C   3 - O   9          0.00773     0.70951   
   404. BD*(   2) C   3 - O   9          0.11058     0.03038  401(r),407(r),410(r),413(r)
                                                    416(r),265(g),112(g),394(v)
                                                    396(v)
   405. BD*(   3) C   3 - O   9          0.11058     0.03038  414(r),417(r),411(r),402(r)
                                                    408(r),266(g),113(g),398(v)
                                                    399(v)
   406. BD*(   1) C   4 - O  10          0.00773     0.70951   
   407. BD*(   2) C   4 - O  10          0.11058     0.03038  410(r),404(r),401(r),417(r)
                                                    414(r),291(g),138(g),395(v)
                                                    397(v)
   408. BD*(   3) C   4 - O  10          0.11058     0.03038  416(r),413(r),402(r),411(r)
                                                    405(r),292(g),139(g),398(v)
                                                    399(v)
   409. BD*(   1) C   5 - O  11          0.00773     0.70951   
   410. BD*(   2) C   5 - O  11          0.11058     0.03038  407(r),401(r),404(r),416(r)
                                                    413(r),317(g),164(g),394(v)
                                                    396(v)
   411. BD*(   3) C   5 - O  11          0.11058     0.03038  417(r),414(r),405(r),408(r)
                                                    402(r),318(g),165(g),398(v)
                                                    399(v)
   412. BD*(   1) C   6 - O  12          0.00773     0.70951   
   413. BD*(   2) C   6 - O  12          0.11058     0.03038  402(r),408(r),416(r),404(r)
                                                    410(r),343(g),190(g),394(v)
                                                    396(v)
   414. BD*(   3) C   6 - O  12          0.11058     0.03038  405(r),411(r),417(r),401(r)
                                                    407(r),344(g),191(g),395(v)
                                                    397(v)
   415. BD*(   1) C   7 - O  13          0.00773     0.70951   
   416. BD*(   2) C   7 - O  13          0.11058     0.03038  402(r),408(r),413(r),410(r)
                                                    404(r),369(g),216(g),394(v)
                                                    396(v)
   417. BD*(   3) C   7 - O  13          0.11058     0.03038  411(r),405(r),414(r),401(r)
                                                    407(r),370(g),217(g),395(v)
                                                    397(v)
       -------------------------------
              Total Lewis  106.09701  ( 98.2380%)
        Valence non-Lewis    1.69308  (  1.5677%)
        Rydberg non-Lewis    0.20990  (  0.1944%)
       -------------------------------
            Total unit  1  108.00000  (100.0000%)
           Charge unit  1    0.00000
 Sorting of NBOs:                   25   26   28   32   30   40   41   42   43   44
 Sorting of NBOs:                   45   36   37   38   39   34   35   27   31   33
 Sorting of NBOs:                   29   22    7   16   10   13   19   52   51   49
 Sorting of NBOs:                   50   53   54    3    6    4    2    5    1   24
 Sorting of NBOs:                    9    8   23   17   18   14   15   12   11   20
 Sorting of NBOs:                   21   46   47   48  407  410  411  408  417  416
 Sorting of NBOs:                  402  401  414  413  405  404  394  398  399  396
 Sorting of NBOs:                  397  395   57   56   55   80   72   75  400  403
 Sorting of NBOs:                  406  409  415  412   58  134  212  108  186  160
 Sorting of NBOs:                   82  291  343  239  292  265  317  266  318  240
 Sorting of NBOs:                  344  370  369   62   64  267  241  345  293  371
 Sorting of NBOs:                  319  342  290  316  264  368  238   60   59   85
 Sorting of NBOs:                  214  136  189  188   84  163  215  162  110  137
 Sorting of NBOs:                  111  251  275  377  303  351  327  383  357  115
 Sorting of NBOs:                  219  193  167  141   89  117  145  170   92  223
 Sorting of NBOs:                  169  144  195   93  197  221  118  321  269  295
 Sorting of NBOs:                  243  373  372  346  347  294  242  268  320  281
 Sorting of NBOs:                  307  333  255  213  109   83  161  187  135  222
 Sorting of NBOs:                  196  119  171  143   91   96  148  172  120  202
 Sorting of NBOs:                  228   88  218  192  140  166  114   94  174  146
 Sorting of NBOs:                  122  224  200  198  226  123  149  175   97   78
 Sorting of NBOs:                   73   77  297  323  245  271  376  350  112  216
 Sorting of NBOs:                  190  191   86  164  138   87  217  165  113  139
 Sorting of NBOs:                  225  199  147  173   95  121  230  204  211  237
 Sorting of NBOs:                  210  236  246  324  298  272  279  331  249  301
 Sorting of NBOs:                  355  385  359  381  128  103  155  180   81   74
 Sorting of NBOs:                  349  375   98  150  176  124  299  277  329  247
 Sorting of NBOs:                  178  100  152  126   76   79  209  105  183  157
 Sorting of NBOs:                  131  235  201  227  234  208  179  153  101  127
 Sorting of NBOs:                   66   69   70   67   68   65   63   61   71  116
 Sorting of NBOs:                  168  142  194   90  220  182  130  156  104  181
 Sorting of NBOs:                  102  129  154  133  185  158  106  132  107  159
 Sorting of NBOs:                  184  207  206  233  232  205  231  244  322  296
 Sorting of NBOs:                  270  374  348  392  393  366  367  336  284  311
 Sorting of NBOs:                  259  283  257  309  335  391  261  287  339  313
 Sorting of NBOs:                  365  390  364  260  312  338  286  258  310  337
 Sorting of NBOs:                  285  340  288  263  315  363  388  362  389  262
 Sorting of NBOs:                  341  314  289  328  304  378  352  252  276  358
 Sorting of NBOs:                  384  382  380  356  354  326  248  274  300  278
 Sorting of NBOs:                  302  250  330  387  361  282  308  334  256  254
 Sorting of NBOs:                  306  332  280  386  360  229  203  125   99  177
 Sorting of NBOs:                  151  353  379  273  253  325  305
 Reordering of NBOs for storage:    25   26   28   32   30   40   41   42   43   44
 Reordering of NBOs for storage:    45   36   37   38   39   34   35   27   31   33
 Reordering of NBOs for storage:    29   22    7   16   10   13   19   52   51   49
 Reordering of NBOs for storage:    50   53   54    3    6    4    2    5    1   24
 Reordering of NBOs for storage:     9    8   23   17   18   14   15   12   11   20
 Reordering of NBOs for storage:    21   46   47   48  407  410  411  408  417  416
 Reordering of NBOs for storage:   402  401  414  413  405  404  394  398  399  396
 Reordering of NBOs for storage:   397  395  400  403  406  409  415  412   57   56
 Reordering of NBOs for storage:    55   80   72   75   58  134  212  108  186  160
 Reordering of NBOs for storage:    82  291  343  239  292  265  317  266  318  240
 Reordering of NBOs for storage:   344  370  369   62   64  267  241  345  293  371
 Reordering of NBOs for storage:   319  342  290  316  264  368  238   60   59   85
 Reordering of NBOs for storage:   214  136  189  188   84  163  215  162  110  137
 Reordering of NBOs for storage:   111  251  275  377  303  351  327  383  357  115
 Reordering of NBOs for storage:   219  193  167  141   89  117  145  170   92  223
 Reordering of NBOs for storage:   169  144  195   93  197  221  118  321  269  295
 Reordering of NBOs for storage:   243  373  372  346  347  294  242  268  320  281
 Reordering of NBOs for storage:   307  333  255  213  109   83  161  187  135  222
 Reordering of NBOs for storage:   196  119  171  143   91   96  148  172  120  202
 Reordering of NBOs for storage:   228   88  218  192  140  166  114   94  174  146
 Reordering of NBOs for storage:   122  224  200  198  226  123  149  175   97   78
 Reordering of NBOs for storage:    73   77  297  323  245  271  376  350  112  216
 Reordering of NBOs for storage:   190  191   86  164  138   87  217  165  113  139
 Reordering of NBOs for storage:   225  199  147  173   95  121  230  204  211  237
 Reordering of NBOs for storage:   210  236  246  324  298  272  279  331  249  301
 Reordering of NBOs for storage:   355  385  359  381  128  103  155  180   81   74
 Reordering of NBOs for storage:   349  375   98  150  176  124  299  277  329  247
 Reordering of NBOs for storage:   178  100  152  126   76   79  209  105  183  157
 Reordering of NBOs for storage:   131  235  201  227  234  208  179  153  101  127
 Reordering of NBOs for storage:    66   69   70   67   68   65   63   61   71  116
 Reordering of NBOs for storage:   168  142  194   90  220  182  130  156  104  181
 Reordering of NBOs for storage:   102  129  154  133  185  158  106  132  107  159
 Reordering of NBOs for storage:   184  207  206  233  232  205  231  244  322  296
 Reordering of NBOs for storage:   270  374  348  392  393  366  367  336  284  311
 Reordering of NBOs for storage:   259  283  257  309  335  391  261  287  339  313
 Reordering of NBOs for storage:   365  390  364  260  312  338  286  258  310  337
 Reordering of NBOs for storage:   285  340  288  263  315  363  388  362  389  262
 Reordering of NBOs for storage:   341  314  289  328  304  378  352  252  276  358
 Reordering of NBOs for storage:   384  382  380  356  354  326  248  274  300  278
 Reordering of NBOs for storage:   302  250  330  387  361  282  308  334  256  254
 Reordering of NBOs for storage:   306  332  280  386  360  229  203  125   99  177
 Reordering of NBOs for storage:   151  353  379  273  253  325  305
 Labels of output orbitals:  CR  CR  CR  CR  CR  CR  CR  CR  CR  CR  CR  CR  CR  CR  CR  CR  CR  CR  CR  CR  
 Labels of output orbitals:  CR  BD  BD  BD  BD  BD  BD  LP  LP  LP  LP  LP  LP  BD  BD  BD  BD  BD  BD  BD  
 Labels of output orbitals:  BD  BD  BD  BD  BD  BD  BD  BD  BD  BD  BD  LP  LP  LP  BD* BD* BD* BD* BD* BD* 
 Labels of output orbitals:  BD* BD* BD* BD* BD* BD* BD* BD* BD* BD* BD* BD* BD* BD* BD* BD* BD* BD* RY* RY* 
 Labels of output orbitals:  RY* RY* RY* RY* RY* RY* RY* RY* RY* RY* RY* RY* RY* RY* RY* RY* RY* RY* RY* RY* 
 Labels of output orbitals:  RY* RY* RY* RY* RY* RY* RY* RY* RY* RY* RY* RY* RY* RY* RY* RY* RY* RY* RY* RY* 
 Labels of output orbitals:  RY* RY* RY* RY* RY* RY* RY* RY* RY* RY* RY* RY* RY* RY* RY* RY* RY* RY* RY* RY* 
 Labels of output orbitals:  RY* RY* RY* RY* RY* RY* RY* RY* RY* RY* RY* RY* RY* RY* RY* RY* RY* RY* RY* RY* 
 Labels of output orbitals:  RY* RY* RY* RY* RY* RY* RY* RY* RY* RY* RY* RY* RY* RY* RY* RY* RY* RY* RY* RY* 
 Labels of output orbitals:  RY* RY* RY* RY* RY* RY* RY* RY* RY* RY* RY* RY* RY* RY* RY* RY* RY* RY* RY* RY* 
 Labels of output orbitals:  RY* RY* RY* RY* RY* RY* RY* RY* RY* RY* RY* RY* RY* RY* RY* RY* RY* RY* RY* RY* 
 Labels of output orbitals:  RY* RY* RY* RY* RY* RY* RY* RY* RY* RY* RY* RY* RY* RY* RY* RY* RY* RY* RY* RY* 
 Labels of output orbitals:  RY* RY* RY* RY* RY* RY* RY* RY* RY* RY* RY* RY* RY* RY* RY* RY* RY* RY* RY* RY* 
 Labels of output orbitals:  RY* RY* RY* RY* RY* RY* RY* RY* RY* RY* RY* RY* RY* RY* RY* RY* RY* RY* RY* RY* 
 Labels of output orbitals:  RY* RY* RY* RY* RY* RY* RY* RY* RY* RY* RY* RY* RY* RY* RY* RY* RY* RY* RY* RY* 
 Labels of output orbitals:  RY* RY* RY* RY* RY* RY* RY* RY* RY* RY* RY* RY* RY* RY* RY* RY* RY* RY* RY* RY* 
 Labels of output orbitals:  RY* RY* RY* RY* RY* RY* RY* RY* RY* RY* RY* RY* RY* RY* RY* RY* RY* RY* RY* RY* 
 Labels of output orbitals:  RY* RY* RY* RY* RY* RY* RY* RY* RY* RY* RY* RY* RY* RY* RY* RY* RY* RY* RY* RY* 
 Labels of output orbitals:  RY* RY* RY* RY* RY* RY* RY* RY* RY* RY* RY* RY* RY* RY* RY* RY* RY* RY* RY* RY* 
 Labels of output orbitals:  RY* RY* RY* RY* RY* RY* RY* RY* RY* RY* RY* RY* RY* RY* RY* RY* RY* RY* RY* RY* 
 Labels of output orbitals:  RY* RY* RY* RY* RY* RY* RY* RY* RY* RY* RY* RY* RY* RY* RY* RY* RY* 
 GSVD:  LWork=       -3348 too small for GESVD, short by       15390 words or       15390 for optimal perf.
 GSVD:  LWork=     -134673 too small for GESVD, short by      664290 words or      664290 for optimal perf.
 Leave Link  607 at Wed Oct 14 12:04:28 2020, MaxMem=  7068979123 cpu:              46.2 elap:               5.9
 (Enter /opt/cms/q-ch/gaussian/A03/g16/l9999.exe)
 1\1\GINC-NODE-AMG08\SP\RPBE1PBE\def2TZVP\C6Cr1O6\A.ZHUGAYEVYCH\14-Oct-
 2020\0\\#P PBE1PBE Def2TZVP int(ultrafine) gfprint nosymm pop(NBO,Save
 NBOs) Density\\\0,1\Cr,0,0.,0.,0.\C,0,1.897809,0.,0.\C,0,0.,-1.897809,
 0.\C,0,-1.897809,0.,0.\C,0,0.,1.897809,0.\C,0,0.,0.,1.897809\C,0,0.,0.
 ,-1.897809\O,0,3.034617,0.,0.\O,0,0.,-3.034617,0.\O,0,-3.034617,0.,0.\
 O,0,0.,3.034617,0.\O,0,0.,0.,3.034617\O,0,0.,0.,-3.034617\\Version=ES6
 4L-G16RevA.03\HF=-1723.8809671\RMSD=2.441e-09\Dipole=0.,0.,0.\Quadrupo
 le=0.,0.,0.,0.,0.,0.\PG=OH [O(Cr1),3C4(O1C1.C1O1)]\\@


 THE ATTENTION SPAN OF A COMPUTER IS AS LONG
 AS ITS EXTENSION CORD.
 Job cpu time:       0 days  0 hours 17 minutes 34.9 seconds.
 Elapsed time:       0 days  0 hours  2 minutes 12.6 seconds.
 File lengths (MBytes):  RWF=    106 Int=      0 D2E=      0 Chk=     11 Scr=      1
 Normal termination of Gaussian 16 at Wed Oct 14 12:04:33 2020.
