 Entering Gaussian System, Link 0=g09
 Initial command:
 /home/Andriy.Zhugayevych/local/gaussian/g09/l1.exe "/scr/82075.mgmt.skoltech.ru/CrCO6_molec_B3LYPp2p_nbo/Gau-27860.inp" -scrdir="/scr/82075.mgmt.skoltech.ru/CrCO6_molec_B3LYPp2p_nbo/"
 Entering Link 1 = /home/Andriy.Zhugayevych/local/gaussian/g09/l1.exe PID=     27861.
  
 Copyright (c) 1988,1990,1992,1993,1995,1998,2003,2009,2013,
            Gaussian, Inc.  All Rights Reserved.
  
 This is part of the Gaussian(R) 09 program.  It is based on
 the Gaussian(R) 03 system (copyright 2003, Gaussian, Inc.),
 the Gaussian(R) 98 system (copyright 1998, Gaussian, Inc.),
 the Gaussian(R) 94 system (copyright 1995, Gaussian, Inc.),
 the Gaussian 92(TM) system (copyright 1992, Gaussian, Inc.),
 the Gaussian 90(TM) system (copyright 1990, Gaussian, Inc.),
 the Gaussian 88(TM) system (copyright 1988, Gaussian, Inc.),
 the Gaussian 86(TM) system (copyright 1986, Carnegie Mellon
 University), and the Gaussian 82(TM) system (copyright 1983,
 Carnegie Mellon University). Gaussian is a federally registered
 trademark of Gaussian, Inc.
  
 This software contains proprietary and confidential information,
 including trade secrets, belonging to Gaussian, Inc.
  
 This software is provided under written license and may be
 used, copied, transmitted, or stored only in accord with that
 written license.
  
 The following legend is applicable only to US Government
 contracts under FAR:
  
                    RESTRICTED RIGHTS LEGEND
  
 Use, reproduction and disclosure by the US Government is
 subject to restrictions as set forth in subparagraphs (a)
 and (c) of the Commercial Computer Software - Restricted
 Rights clause in FAR 52.227-19.
  
 Gaussian, Inc.
 340 Quinnipiac St., Bldg. 40, Wallingford CT 06492
  
  
 ---------------------------------------------------------------
 Warning -- This program may not be used in any manner that
 competes with the business of Gaussian, Inc. or will provide
 assistance to any competitor of Gaussian, Inc.  The licensee
 of this program is prohibited from giving any competitor of
 Gaussian, Inc. access to this program.  By using this program,
 the user acknowledges that Gaussian, Inc. is engaged in the
 business of creating and licensing software in the field of
 computational chemistry and represents and warrants to the
 licensee that it is not a competitor of Gaussian, Inc. and that
 it will not use this program in any manner prohibited above.
 ---------------------------------------------------------------
  

 Cite this work as:
 Gaussian 09, Revision D.01,
 M. J. Frisch, G. W. Trucks, H. B. Schlegel, G. E. Scuseria, 
 M. A. Robb, J. R. Cheeseman, G. Scalmani, V. Barone, B. Mennucci, 
 G. A. Petersson, H. Nakatsuji, M. Caricato, X. Li, H. P. Hratchian, 
 A. F. Izmaylov, J. Bloino, G. Zheng, J. L. Sonnenberg, M. Hada, 
 M. Ehara, K. Toyota, R. Fukuda, J. Hasegawa, M. Ishida, T. Nakajima, 
 Y. Honda, O. Kitao, H. Nakai, T. Vreven, J. A. Montgomery, Jr., 
 J. E. Peralta, F. Ogliaro, M. Bearpark, J. J. Heyd, E. Brothers, 
 K. N. Kudin, V. N. Staroverov, T. Keith, R. Kobayashi, J. Normand, 
 K. Raghavachari, A. Rendell, J. C. Burant, S. S. Iyengar, J. Tomasi, 
 M. Cossi, N. Rega, J. M. Millam, M. Klene, J. E. Knox, J. B. Cross, 
 V. Bakken, C. Adamo, J. Jaramillo, R. Gomperts, R. E. Stratmann, 
 O. Yazyev, A. J. Austin, R. Cammi, C. Pomelli, J. W. Ochterski, 
 R. L. Martin, K. Morokuma, V. G. Zakrzewski, G. A. Voth, 
 P. Salvador, J. J. Dannenberg, S. Dapprich, A. D. Daniels, 
 O. Farkas, J. B. Foresman, J. V. Ortiz, J. Cioslowski, 
 and D. J. Fox, Gaussian, Inc., Wallingford CT, 2013.
 
 ******************************************
 Gaussian 09:  ES64L-G09RevD.01 24-Apr-2013
                 5-Oct-2016 
 ******************************************
 %nprocshared=8
 Will use up to    8 processors via shared memory.
 %mem=24GB
 %rwf=CrCO6_molec_B3LYPp2p_nbo.rwf
 -------------------------------------------------
 #P B3LYP 6-31G* gfprint pop(NBO,SaveNBOs) Density
 -------------------------------------------------
 1/30=1,38=1/1;
 2/12=2,17=6,18=5,40=1/2;
 3/5=1,6=6,7=1,11=2,16=1,24=100,25=1,30=1,74=-5/1,2,3;
 4//1;
 5/5=2,38=5/2;
 6/7=2,8=2,9=2,10=2,22=-1,28=1,40=1,73=1/1,7;
 99/5=1,9=1/99;
 Leave Link    1 at Wed Oct  5 17:52:14 2016, MaxMem=  3221225472 cpu:         0.6
 (Enter /home/Andriy.Zhugayevych/local/gaussian/g09/l101.exe)


 Symbolic Z-matrix:
 Charge =  0 Multiplicity = 1
 Cr                    0.        0.        0. 
 C                     1.91543   0.        0. 
 C                     0.       -1.91543   0. 
 C                    -1.91543   0.        0. 
 C                     0.        1.91543   0. 
 C                     0.        0.        1.91543 
 C                     0.        0.       -1.91543 
 O                     3.06505   0.        0. 
 O                     0.       -3.06505   0. 
 O                    -3.06505   0.        0. 
 O                     0.        3.06505   0. 
 O                     0.        0.        3.06505 
 O                     0.        0.       -3.06505 
 
 NAtoms=     13 NQM=       13 NQMF=       0 NMMI=      0 NMMIF=      0
                NMic=       0 NMicF=      0.
                    Isotopes and Nuclear Properties:
 (Nuclear quadrupole moments (NQMom) in fm**2, nuclear magnetic moments (NMagM)
  in nuclear magnetons)

  Atom         1           2           3           4           5           6           7           8           9          10
 IAtWgt=          52          12          12          12          12          12          12          16          16          16
 AtmWgt=  51.9405097  12.0000000  12.0000000  12.0000000  12.0000000  12.0000000  12.0000000  15.9949146  15.9949146  15.9949146
 NucSpn=           0           0           0           0           0           0           0           0           0           0
 AtZEff=   0.0000000   0.0000000   0.0000000   0.0000000   0.0000000   0.0000000   0.0000000   0.0000000   0.0000000   0.0000000
 NQMom=    0.0000000   0.0000000   0.0000000   0.0000000   0.0000000   0.0000000   0.0000000   0.0000000   0.0000000   0.0000000
 NMagM=    0.0000000   0.0000000   0.0000000   0.0000000   0.0000000   0.0000000   0.0000000   0.0000000   0.0000000   0.0000000
 AtZNuc=  24.0000000   6.0000000   6.0000000   6.0000000   6.0000000   6.0000000   6.0000000   8.0000000   8.0000000   8.0000000

  Atom        11          12          13
 IAtWgt=          16          16          16
 AtmWgt=  15.9949146  15.9949146  15.9949146
 NucSpn=           0           0           0
 AtZEff=   0.0000000   0.0000000   0.0000000
 NQMom=    0.0000000   0.0000000   0.0000000
 NMagM=    0.0000000   0.0000000   0.0000000
 AtZNuc=   8.0000000   8.0000000   8.0000000
 Leave Link  101 at Wed Oct  5 17:52:14 2016, MaxMem=  3221225472 cpu:         0.5
 (Enter /home/Andriy.Zhugayevych/local/gaussian/g09/l202.exe)
                          Input orientation:                          
 ---------------------------------------------------------------------
 Center     Atomic      Atomic             Coordinates (Angstroms)
 Number     Number       Type             X           Y           Z
 ---------------------------------------------------------------------
      1         24           0        0.000000    0.000000    0.000000
      2          6           0        1.915427    0.000000    0.000000
      3          6           0        0.000000   -1.915427    0.000000
      4          6           0       -1.915427    0.000000    0.000000
      5          6           0        0.000000    1.915427    0.000000
      6          6           0        0.000000    0.000000    1.915427
      7          6           0        0.000000    0.000000   -1.915427
      8          8           0        3.065051    0.000000    0.000000
      9          8           0        0.000000   -3.065051    0.000000
     10          8           0       -3.065051    0.000000    0.000000
     11          8           0        0.000000    3.065051    0.000000
     12          8           0        0.000000    0.000000    3.065051
     13          8           0        0.000000    0.000000   -3.065051
 ---------------------------------------------------------------------
                    Distance matrix (angstroms):
                    1          2          3          4          5
     1  Cr   0.000000
     2  C    1.915427   0.000000
     3  C    1.915427   2.708823   0.000000
     4  C    1.915427   3.830854   2.708823   0.000000
     5  C    1.915427   2.708823   3.830854   2.708823   0.000000
     6  C    1.915427   2.708823   2.708823   2.708823   2.708823
     7  C    1.915427   2.708823   2.708823   2.708823   2.708823
     8  O    3.065051   1.149624   3.614332   4.980478   3.614332
     9  O    3.065051   3.614332   1.149624   3.614332   4.980478
    10  O    3.065051   4.980478   3.614332   1.149624   3.614332
    11  O    3.065051   3.614332   4.980478   3.614332   1.149624
    12  O    3.065051   3.614332   3.614332   3.614332   3.614332
    13  O    3.065051   3.614332   3.614332   3.614332   3.614332
                    6          7          8          9         10
     6  C    0.000000
     7  C    3.830854   0.000000
     8  O    3.614332   3.614332   0.000000
     9  O    3.614332   3.614332   4.334637   0.000000
    10  O    3.614332   3.614332   6.130102   4.334637   0.000000
    11  O    3.614332   3.614332   4.334637   6.130102   4.334637
    12  O    1.149624   4.980478   4.334637   4.334637   4.334637
    13  O    4.980478   1.149624   4.334637   4.334637   4.334637
                   11         12         13
    11  O    0.000000
    12  O    4.334637   0.000000
    13  O    4.334637   6.130102   0.000000
 Stoichiometry    C6CrO6
 Framework group  OH[O(Cr),3C4(OC.CO)]
 Deg. of freedom     2
 Full point group                 OH      NOp  48
 Largest Abelian subgroup         D2H     NOp   8
 Largest concise Abelian subgroup D2H     NOp   8
                         Standard orientation:                         
 ---------------------------------------------------------------------
 Center     Atomic      Atomic             Coordinates (Angstroms)
 Number     Number       Type             X           Y           Z
 ---------------------------------------------------------------------
      1         24           0        0.000000    0.000000    0.000000
      2          6           0        0.000000    0.000000    1.915427
      3          6           0        0.000000    1.915427    0.000000
      4          6           0        0.000000    0.000000   -1.915427
      5          6           0        0.000000   -1.915427    0.000000
      6          6           0        1.915427    0.000000    0.000000
      7          6           0       -1.915427    0.000000    0.000000
      8          8           0        0.000000    0.000000    3.065051
      9          8           0        0.000000    3.065051    0.000000
     10          8           0        0.000000    0.000000   -3.065051
     11          8           0        0.000000   -3.065051    0.000000
     12          8           0        3.065051    0.000000    0.000000
     13          8           0       -3.065051    0.000000    0.000000
 ---------------------------------------------------------------------
 Rotational constants (GHZ):      0.6502857      0.6502857      0.6502857
 Leave Link  202 at Wed Oct  5 17:52:14 2016, MaxMem=  3221225472 cpu:         0.3
 (Enter /home/Andriy.Zhugayevych/local/gaussian/g09/l301.exe)
 Standard basis: 6-31G(d) (6D, 7F)
 Ernie: Thresh=  0.10000D-02 Tol=  0.10000D-05 Strict=F.
 AO basis set (Overlap normalization):
 Atom Cr1      Shell     1 S   6     bf    1 -     1          0.000000000000          0.000000000000          0.000000000000
      0.5178981000D+05  0.1776181956D-02
      0.7776849000D+04  0.1360475966D-01
      0.1771385000D+04  0.6706924832D-01
      0.4991588000D+03  0.2323103942D+00
      0.1597982000D+03  0.4802409880D+00
      0.5447021000D+02  0.3487652913D+00
 Atom Cr1      Shell     2 SP   6    bf    2 -     5          0.000000000000          0.000000000000          0.000000000000
      0.1064328000D+04  0.2399669027D-02  0.3986996969D-02
      0.2532138000D+03  0.3194886035D-01  0.3104661976D-01
      0.8160924000D+02  0.1250868014D+00  0.1350517989D+00
      0.3048193000D+02 -0.3221866036D-01  0.3448864973D+00
      0.1229439000D+02 -0.6172284069D+00  0.4628570964D+00
      0.5037722000D+01 -0.4525936050D+00  0.2110425984D+00
 Atom Cr1      Shell     3 SP   6    bf    6 -     9          0.000000000000          0.000000000000          0.000000000000
      0.4156291000D+02 -0.3454215978D-02 -0.6722497017D-02
      0.1367627000D+02  0.7218427953D-01 -0.2806471007D-01
      0.5844390000D+01  0.2544819984D+00  0.5820028015D-01
      0.2471609000D+01 -0.2934533981D+00  0.3916988010D+00
      0.1028308000D+01 -0.7385454952D+00  0.5047823013D+00
      0.4072500000D+00 -0.1947156987D+00  0.1790290005D+00
 Atom Cr1      Shell     4 SP   3    bf   10 -    13          0.000000000000          0.000000000000          0.000000000000
      0.1571464000D+01  0.5892221460D-01 -0.1930100080D+00
      0.6055800000D+00  0.2976056242D+00  0.9605620398D-01
      0.9856100000D-01 -0.1147506479D+01  0.9817609407D+00
 Atom Cr1      Shell     5 SP   1    bf   14 -    17          0.000000000000          0.000000000000          0.000000000000
      0.3645900000D-01  0.1000000000D+01  0.1000000000D+01
 Atom Cr1      Shell     6 D   3     bf   18 -    23          0.000000000000          0.000000000000          0.000000000000
      0.1841930000D+02  0.8650816335D-01
      0.4812661000D+01  0.3826699148D+00
      0.1446447000D+01  0.7093772274D+00
 Atom Cr1      Shell     7 D   1     bf   24 -    29          0.000000000000          0.000000000000          0.000000000000
      0.4004130000D+00  0.1000000000D+01
 Atom Cr1      Shell     8 F   1     bf   30 -    36          0.000000000000          0.000000000000          0.000000000000
      0.8000000000D+00  0.1000000000D+01
 Atom C2       Shell     9 S   6     bf   37 -    37          0.000000000000          0.000000000000          3.619632457535
      0.3047524880D+04  0.1834737132D-02
      0.4573695180D+03  0.1403732281D-01
      0.1039486850D+03  0.6884262226D-01
      0.2921015530D+02  0.2321844432D+00
      0.9286662960D+01  0.4679413484D+00
      0.3163926960D+01  0.3623119853D+00
 Atom C2       Shell    10 SP   3    bf   38 -    41          0.000000000000          0.000000000000          3.619632457535
      0.7868272350D+01 -0.1193324198D+00  0.6899906659D-01
      0.1881288540D+01 -0.1608541517D+00  0.3164239610D+00
      0.5442492580D+00  0.1143456438D+01  0.7443082909D+00
 Atom C2       Shell    11 SP   1    bf   42 -    45          0.000000000000          0.000000000000          3.619632457535
      0.1687144782D+00  0.1000000000D+01  0.1000000000D+01
 Atom C2       Shell    12 D   1     bf   46 -    51          0.000000000000          0.000000000000          3.619632457535
      0.8000000000D+00  0.1000000000D+01
 Atom C3       Shell    13 S   6     bf   52 -    52          0.000000000000          3.619632457535          0.000000000000
      0.3047524880D+04  0.1834737132D-02
      0.4573695180D+03  0.1403732281D-01
      0.1039486850D+03  0.6884262226D-01
      0.2921015530D+02  0.2321844432D+00
      0.9286662960D+01  0.4679413484D+00
      0.3163926960D+01  0.3623119853D+00
 Atom C3       Shell    14 SP   3    bf   53 -    56          0.000000000000          3.619632457535          0.000000000000
      0.7868272350D+01 -0.1193324198D+00  0.6899906659D-01
      0.1881288540D+01 -0.1608541517D+00  0.3164239610D+00
      0.5442492580D+00  0.1143456438D+01  0.7443082909D+00
 Atom C3       Shell    15 SP   1    bf   57 -    60          0.000000000000          3.619632457535          0.000000000000
      0.1687144782D+00  0.1000000000D+01  0.1000000000D+01
 Atom C3       Shell    16 D   1     bf   61 -    66          0.000000000000          3.619632457535          0.000000000000
      0.8000000000D+00  0.1000000000D+01
 Atom C4       Shell    17 S   6     bf   67 -    67          0.000000000000          0.000000000000         -3.619632457535
      0.3047524880D+04  0.1834737132D-02
      0.4573695180D+03  0.1403732281D-01
      0.1039486850D+03  0.6884262226D-01
      0.2921015530D+02  0.2321844432D+00
      0.9286662960D+01  0.4679413484D+00
      0.3163926960D+01  0.3623119853D+00
 Atom C4       Shell    18 SP   3    bf   68 -    71          0.000000000000          0.000000000000         -3.619632457535
      0.7868272350D+01 -0.1193324198D+00  0.6899906659D-01
      0.1881288540D+01 -0.1608541517D+00  0.3164239610D+00
      0.5442492580D+00  0.1143456438D+01  0.7443082909D+00
 Atom C4       Shell    19 SP   1    bf   72 -    75          0.000000000000          0.000000000000         -3.619632457535
      0.1687144782D+00  0.1000000000D+01  0.1000000000D+01
 Atom C4       Shell    20 D   1     bf   76 -    81          0.000000000000          0.000000000000         -3.619632457535
      0.8000000000D+00  0.1000000000D+01
 Atom C5       Shell    21 S   6     bf   82 -    82          0.000000000000         -3.619632457535          0.000000000000
      0.3047524880D+04  0.1834737132D-02
      0.4573695180D+03  0.1403732281D-01
      0.1039486850D+03  0.6884262226D-01
      0.2921015530D+02  0.2321844432D+00
      0.9286662960D+01  0.4679413484D+00
      0.3163926960D+01  0.3623119853D+00
 Atom C5       Shell    22 SP   3    bf   83 -    86          0.000000000000         -3.619632457535          0.000000000000
      0.7868272350D+01 -0.1193324198D+00  0.6899906659D-01
      0.1881288540D+01 -0.1608541517D+00  0.3164239610D+00
      0.5442492580D+00  0.1143456438D+01  0.7443082909D+00
 Atom C5       Shell    23 SP   1    bf   87 -    90          0.000000000000         -3.619632457535          0.000000000000
      0.1687144782D+00  0.1000000000D+01  0.1000000000D+01
 Atom C5       Shell    24 D   1     bf   91 -    96          0.000000000000         -3.619632457535          0.000000000000
      0.8000000000D+00  0.1000000000D+01
 Atom C6       Shell    25 S   6     bf   97 -    97          3.619632457535          0.000000000000          0.000000000000
      0.3047524880D+04  0.1834737132D-02
      0.4573695180D+03  0.1403732281D-01
      0.1039486850D+03  0.6884262226D-01
      0.2921015530D+02  0.2321844432D+00
      0.9286662960D+01  0.4679413484D+00
      0.3163926960D+01  0.3623119853D+00
 Atom C6       Shell    26 SP   3    bf   98 -   101          3.619632457535          0.000000000000          0.000000000000
      0.7868272350D+01 -0.1193324198D+00  0.6899906659D-01
      0.1881288540D+01 -0.1608541517D+00  0.3164239610D+00
      0.5442492580D+00  0.1143456438D+01  0.7443082909D+00
 Atom C6       Shell    27 SP   1    bf  102 -   105          3.619632457535          0.000000000000          0.000000000000
      0.1687144782D+00  0.1000000000D+01  0.1000000000D+01
 Atom C6       Shell    28 D   1     bf  106 -   111          3.619632457535          0.000000000000          0.000000000000
      0.8000000000D+00  0.1000000000D+01
 Atom C7       Shell    29 S   6     bf  112 -   112         -3.619632457535          0.000000000000          0.000000000000
      0.3047524880D+04  0.1834737132D-02
      0.4573695180D+03  0.1403732281D-01
      0.1039486850D+03  0.6884262226D-01
      0.2921015530D+02  0.2321844432D+00
      0.9286662960D+01  0.4679413484D+00
      0.3163926960D+01  0.3623119853D+00
 Atom C7       Shell    30 SP   3    bf  113 -   116         -3.619632457535          0.000000000000          0.000000000000
      0.7868272350D+01 -0.1193324198D+00  0.6899906659D-01
      0.1881288540D+01 -0.1608541517D+00  0.3164239610D+00
      0.5442492580D+00  0.1143456438D+01  0.7443082909D+00
 Atom C7       Shell    31 SP   1    bf  117 -   120         -3.619632457535          0.000000000000          0.000000000000
      0.1687144782D+00  0.1000000000D+01  0.1000000000D+01
 Atom C7       Shell    32 D   1     bf  121 -   126         -3.619632457535          0.000000000000          0.000000000000
      0.8000000000D+00  0.1000000000D+01
 Atom O8       Shell    33 S   6     bf  127 -   127          0.000000000000          0.000000000000          5.792106973327
      0.5484671660D+04  0.1831074430D-02
      0.8252349460D+03  0.1395017220D-01
      0.1880469580D+03  0.6844507810D-01
      0.5296450000D+02  0.2327143360D+00
      0.1689757040D+02  0.4701928980D+00
      0.5799635340D+01  0.3585208530D+00
 Atom O8       Shell    34 SP   3    bf  128 -   131          0.000000000000          0.000000000000          5.792106973327
      0.1553961625D+02 -0.1107775495D+00  0.7087426823D-01
      0.3599933586D+01 -0.1480262627D+00  0.3397528391D+00
      0.1013761750D+01  0.1130767015D+01  0.7271585773D+00
 Atom O8       Shell    35 SP   1    bf  132 -   135          0.000000000000          0.000000000000          5.792106973327
      0.2700058226D+00  0.1000000000D+01  0.1000000000D+01
 Atom O8       Shell    36 D   1     bf  136 -   141          0.000000000000          0.000000000000          5.792106973327
      0.8000000000D+00  0.1000000000D+01
 Atom O9       Shell    37 S   6     bf  142 -   142          0.000000000000          5.792106973327          0.000000000000
      0.5484671660D+04  0.1831074430D-02
      0.8252349460D+03  0.1395017220D-01
      0.1880469580D+03  0.6844507810D-01
      0.5296450000D+02  0.2327143360D+00
      0.1689757040D+02  0.4701928980D+00
      0.5799635340D+01  0.3585208530D+00
 Atom O9       Shell    38 SP   3    bf  143 -   146          0.000000000000          5.792106973327          0.000000000000
      0.1553961625D+02 -0.1107775495D+00  0.7087426823D-01
      0.3599933586D+01 -0.1480262627D+00  0.3397528391D+00
      0.1013761750D+01  0.1130767015D+01  0.7271585773D+00
 Atom O9       Shell    39 SP   1    bf  147 -   150          0.000000000000          5.792106973327          0.000000000000
      0.2700058226D+00  0.1000000000D+01  0.1000000000D+01
 Atom O9       Shell    40 D   1     bf  151 -   156          0.000000000000          5.792106973327          0.000000000000
      0.8000000000D+00  0.1000000000D+01
 Atom O10      Shell    41 S   6     bf  157 -   157          0.000000000000          0.000000000000         -5.792106973327
      0.5484671660D+04  0.1831074430D-02
      0.8252349460D+03  0.1395017220D-01
      0.1880469580D+03  0.6844507810D-01
      0.5296450000D+02  0.2327143360D+00
      0.1689757040D+02  0.4701928980D+00
      0.5799635340D+01  0.3585208530D+00
 Atom O10      Shell    42 SP   3    bf  158 -   161          0.000000000000          0.000000000000         -5.792106973327
      0.1553961625D+02 -0.1107775495D+00  0.7087426823D-01
      0.3599933586D+01 -0.1480262627D+00  0.3397528391D+00
      0.1013761750D+01  0.1130767015D+01  0.7271585773D+00
 Atom O10      Shell    43 SP   1    bf  162 -   165          0.000000000000          0.000000000000         -5.792106973327
      0.2700058226D+00  0.1000000000D+01  0.1000000000D+01
 Atom O10      Shell    44 D   1     bf  166 -   171          0.000000000000          0.000000000000         -5.792106973327
      0.8000000000D+00  0.1000000000D+01
 Atom O11      Shell    45 S   6     bf  172 -   172          0.000000000000         -5.792106973327          0.000000000000
      0.5484671660D+04  0.1831074430D-02
      0.8252349460D+03  0.1395017220D-01
      0.1880469580D+03  0.6844507810D-01
      0.5296450000D+02  0.2327143360D+00
      0.1689757040D+02  0.4701928980D+00
      0.5799635340D+01  0.3585208530D+00
 Atom O11      Shell    46 SP   3    bf  173 -   176          0.000000000000         -5.792106973327          0.000000000000
      0.1553961625D+02 -0.1107775495D+00  0.7087426823D-01
      0.3599933586D+01 -0.1480262627D+00  0.3397528391D+00
      0.1013761750D+01  0.1130767015D+01  0.7271585773D+00
 Atom O11      Shell    47 SP   1    bf  177 -   180          0.000000000000         -5.792106973327          0.000000000000
      0.2700058226D+00  0.1000000000D+01  0.1000000000D+01
 Atom O11      Shell    48 D   1     bf  181 -   186          0.000000000000         -5.792106973327          0.000000000000
      0.8000000000D+00  0.1000000000D+01
 Atom O12      Shell    49 S   6     bf  187 -   187          5.792106973327          0.000000000000          0.000000000000
      0.5484671660D+04  0.1831074430D-02
      0.8252349460D+03  0.1395017220D-01
      0.1880469580D+03  0.6844507810D-01
      0.5296450000D+02  0.2327143360D+00
      0.1689757040D+02  0.4701928980D+00
      0.5799635340D+01  0.3585208530D+00
 Atom O12      Shell    50 SP   3    bf  188 -   191          5.792106973327          0.000000000000          0.000000000000
      0.1553961625D+02 -0.1107775495D+00  0.7087426823D-01
      0.3599933586D+01 -0.1480262627D+00  0.3397528391D+00
      0.1013761750D+01  0.1130767015D+01  0.7271585773D+00
 Atom O12      Shell    51 SP   1    bf  192 -   195          5.792106973327          0.000000000000          0.000000000000
      0.2700058226D+00  0.1000000000D+01  0.1000000000D+01
 Atom O12      Shell    52 D   1     bf  196 -   201          5.792106973327          0.000000000000          0.000000000000
      0.8000000000D+00  0.1000000000D+01
 Atom O13      Shell    53 S   6     bf  202 -   202         -5.792106973327          0.000000000000          0.000000000000
      0.5484671660D+04  0.1831074430D-02
      0.8252349460D+03  0.1395017220D-01
      0.1880469580D+03  0.6844507810D-01
      0.5296450000D+02  0.2327143360D+00
      0.1689757040D+02  0.4701928980D+00
      0.5799635340D+01  0.3585208530D+00
 Atom O13      Shell    54 SP   3    bf  203 -   206         -5.792106973327          0.000000000000          0.000000000000
      0.1553961625D+02 -0.1107775495D+00  0.7087426823D-01
      0.3599933586D+01 -0.1480262627D+00  0.3397528391D+00
      0.1013761750D+01  0.1130767015D+01  0.7271585773D+00
 Atom O13      Shell    55 SP   1    bf  207 -   210         -5.792106973327          0.000000000000          0.000000000000
      0.2700058226D+00  0.1000000000D+01  0.1000000000D+01
 Atom O13      Shell    56 D   1     bf  211 -   216         -5.792106973327          0.000000000000          0.000000000000
      0.8000000000D+00  0.1000000000D+01
 There are    59 symmetry adapted cartesian basis functions of AG  symmetry.
 There are    16 symmetry adapted cartesian basis functions of B1G symmetry.
 There are    16 symmetry adapted cartesian basis functions of B2G symmetry.
 There are    16 symmetry adapted cartesian basis functions of B3G symmetry.
 There are     7 symmetry adapted cartesian basis functions of AU  symmetry.
 There are    35 symmetry adapted cartesian basis functions of B1U symmetry.
 There are    35 symmetry adapted cartesian basis functions of B2U symmetry.
 There are    35 symmetry adapted cartesian basis functions of B3U symmetry.
 There are    59 symmetry adapted basis functions of AG  symmetry.
 There are    16 symmetry adapted basis functions of B1G symmetry.
 There are    16 symmetry adapted basis functions of B2G symmetry.
 There are    16 symmetry adapted basis functions of B3G symmetry.
 There are     7 symmetry adapted basis functions of AU  symmetry.
 There are    34 symmetry adapted basis functions of B1U symmetry.
 There are    34 symmetry adapted basis functions of B2U symmetry.
 There are    34 symmetry adapted basis functions of B3U symmetry.
   216 basis functions,   440 primitive gaussians,   219 cartesian basis functions
    54 alpha electrons       54 beta electrons
       nuclear repulsion energy       979.0664310517 Hartrees.
 IExCor=  402 DFT=T Ex+Corr=B3LYP ExCW=0 ScaHFX=  0.200000
 ScaDFX=  0.800000  0.720000  1.000000  0.810000 ScalE2=  1.000000  1.000000
 IRadAn=      0 IRanWt=     -1 IRanGd=            0 ICorTp=0 IEmpDi=  4
 NAtoms=   13 NActive=   13 NUniq=    3 SFac= 4.00D+00 NAtFMM=   60 NAOKFM=F Big=F
 Integral buffers will be    131072 words long.
 Raffenetti 2 integral format.
 Two-electron integral symmetry is turned on.
 Leave Link  301 at Wed Oct  5 17:52:14 2016, MaxMem=  3221225472 cpu:         0.7
 (Enter /home/Andriy.Zhugayevych/local/gaussian/g09/l302.exe)
 NPDir=0 NMtPBC=     1 NCelOv=     1 NCel=       1 NClECP=     1 NCelD=      1
         NCelK=      1 NCelE2=     1 NClLst=     1 CellRange=     0.0.
 One-electron integrals computed using PRISM.
 One-electron integral symmetry used in STVInt
 NBasis=   216 RedAO= T EigKep=  8.75D-04  NBF=    59    16    16    16     7    34    34    34
 NBsUse=   216 1.00D-06 EigRej= -1.00D+00 NBFU=    59    16    16    16     7    34    34    34
 Precomputing XC quadrature grid using
 IXCGrd= 4 IRadAn=           0 IRanWt=          -1 IRanGd=           0 AccXCQ= 0.00D+00.
 Generated NRdTot=       0 NPtTot=           0 NUsed=           0 NTot=          32
 NSgBfM=   217   217   217   217   217 MxSgAt=    13 MxSgA2=    13.
 Leave Link  302 at Wed Oct  5 17:52:15 2016, MaxMem=  3221225472 cpu:         2.0
 (Enter /home/Andriy.Zhugayevych/local/gaussian/g09/l303.exe)
 DipDrv:  MaxL=1.
 Leave Link  303 at Wed Oct  5 17:52:15 2016, MaxMem=  3221225472 cpu:         0.3
 (Enter /home/Andriy.Zhugayevych/local/gaussian/g09/l401.exe)
 ExpMin= 3.65D-02 ExpMax= 5.18D+04 ExpMxC= 7.78D+03 IAcc=3 IRadAn=         5 AccDes= 0.00D+00
 Harris functional with IExCor=  402 and IRadAn=       5 diagonalized for initial guess.
 HarFok:  IExCor=  402 AccDes= 0.00D+00 IRadAn=         5 IDoV= 1 UseB2=F ITyADJ=14
 ICtDFT=  3500011 ScaDFX=  1.000000  1.000000  1.000000  1.000000
 FoFCou: FMM=F IPFlag=           0 FMFlag=      100000 FMFlg1=           0
         NFxFlg=           0 DoJE=T BraDBF=F KetDBF=T FulRan=T
         wScrn=  0.000000 ICntrl=     500 IOpCl=  0 I1Cent=   200000004 NGrid=           0
         NMat0=    1 NMatS0=      1 NMatT0=    0 NMatD0=    1 NMtDS0=    0 NMtDT0=    0
 Petite list used in FoFCou.
 Harris En= -1724.57754151151    
 JPrj=0 DoOrth=F DoCkMO=F.
 Initial guess orbital symmetries:
       Occupied  (A1G) (A1G) (T1U) (T1U) (T1U) (EG) (EG) (T1U)
                 (T1U) (T1U) (A1G) (A1G) (T1U) (T1U) (T1U) (EG)
                 (EG) (A1G) (T1U) (T1U) (T1U) (A1G) (T1U) (T1U)
                 (T1U) (EG) (EG) (A1G) (T1U) (T1U) (T1U) (EG) (EG)
                 (A1G) (T2G) (T2G) (T2G) (T1U) (T1U) (T1U) (T2U)
                 (T2U) (T2U) (T1G) (T1G) (T1G) (EG) (EG) (T1U)
                 (T1U) (T1U) (T2G) (T2G) (T2G)
       Virtual   (T1U) (T1U) (T1U) (T2U) (T2U) (T2U) (T1G) (T1G)
                 (T1G) (A1G) (T2G) (T2G) (T2G) (EG) (EG) (T1U)
                 (T1U) (T1U) (A1G) (EG) (EG) (T1U) (T1U) (T1U)
                 (T2G) (T2G) (T2G) (T1U) (T1U) (T1U) (A1G) (T2U)
                 (T2U) (T2U) (EG) (EG) (T1U) (T1U) (T1U) (T1G)
                 (T1G) (T1G) (A1G) (T1U) (T1U) (T1U) (A1G) (EG)
                 (EG) (T1U) (T1U) (T1U) (T2G) (T2G) (T2G) (T2U)
                 (T2U) (T2U) (EG) (EG) (A1G) (T1U) (T1U) (T1U)
                 (T1G) (T1G) (T1G) (T2G) (T2G) (T2G) (T2U) (T2U)
                 (T2U) (A2U) (EU) (EU) (T2G) (T2G) (T2G) (A2G)
                 (T1U) (T1U) (T1U) (T2U) (T2U) (T2U) (T1G) (T1G)
                 (T1G) (EG) (EG) (T1U) (T1U) (T1U) (EG) (EG) (A1G)
                 (EG) (EG) (T1U) (T1U) (T1U) (T2G) (T2G) (T2G)
                 (A2U) (EU) (EU) (T2G) (T2G) (T2G) (A2G) (T2U)
                 (T2U) (T2U) (EG) (EG) (T1U) (T1U) (T1U) (T2U)
                 (T2U) (T2U) (A2U) (A1G) (T1G) (T1G) (T1G) (T1U)
                 (T1U) (T1U) (T2G) (T2G) (T2G) (T2U) (T2U) (T2U)
                 (EG) (EG) (T1U) (T1U) (T1U) (A1G) (EG) (EG) (A1G)
                 (T1U) (T1U) (T1U) (T1U) (T1U) (T1U) (A1G) (EG)
                 (EG) (EG) (EG) (T1U) (T1U) (T1U) (A1G) (A1G)
 The electronic state of the initial guess is 1-A1G.
 Leave Link  401 at Wed Oct  5 17:52:15 2016, MaxMem=  3221225472 cpu:         2.1
 (Enter /home/Andriy.Zhugayevych/local/gaussian/g09/l502.exe)
 Closed shell SCF:
 Using DIIS extrapolation, IDIIS=  1040.
 Integral symmetry usage will be decided dynamically.
 Keep R1 ints in memory in symmetry-blocked form, NReq=310443110.
 IVT=      169969 IEndB=      169969 NGot=  3221225472 MDV=  3185417345
 LenX=  3185417345 LenY=  3185368943
 Requested convergence on RMS density matrix=1.00D-08 within 128 cycles.
 Requested convergence on MAX density matrix=1.00D-06.
 Requested convergence on             energy=1.00D-06.
 No special actions if energy rises.
 FoFCou: FMM=F IPFlag=           0 FMFlag=           0 FMFlg1=           0
         NFxFlg=           0 DoJE=F BraDBF=F KetDBF=F FulRan=T
         wScrn=  0.000000 ICntrl=     600 IOpCl=  0 I1Cent=           0 NGrid=           0
         NMat0=    1 NMatS0=  23436 NMatT0=    0 NMatD0=    1 NMtDS0=    0 NMtDT0=    0
 Petite list used in FoFCou.

 Cycle   1  Pass 1  IDiag  1:
 E= -1722.94272414286    
 DIIS: error= 1.38D-01 at cycle   1 NSaved=   1.
 NSaved= 1 IEnMin= 1 EnMin= -1722.94272414286     IErMin= 1 ErrMin= 1.38D-01
 ErrMax= 1.38D-01  0.00D+00 EMaxC= 1.00D-01 BMatC= 2.00D+00 BMatP= 2.00D+00
 IDIUse=3 WtCom= 0.00D+00 WtEn= 1.00D+00
 Coeff-Com:  0.100D+01
 Coeff-En:   0.100D+01
 Coeff:      0.100D+01
 Gap=     0.378 Goal=   None    Shift=    0.000
 GapD=    0.378 DampG=1.000 DampE=0.125 DampFc=0.1250 IDamp=-1.
 Damping current iteration by 1.25D-01
 RMSDP=2.83D-02 MaxDP=1.40D+00              OVMax= 8.53D-01

 Cycle   2  Pass 1  IDiag  1:
 Density matrix breaks symmetry, PCut= 1.00D-04
 Density has only Abelian symmetry.
 E= -1723.53935494298     Delta-E=       -0.596630800117 Rises=F Damp=T
 DIIS: error= 5.42D-02 at cycle   2 NSaved=   2.
 NSaved= 2 IEnMin= 2 EnMin= -1723.53935494298     IErMin= 2 ErrMin= 5.42D-02
 ErrMax= 5.42D-02  0.00D+00 EMaxC= 1.00D-01 BMatC= 3.25D-01 BMatP= 2.00D+00
 IDIUse=3 WtCom= 4.58D-01 WtEn= 5.42D-01
 Coeff-Com: -0.529D+00 0.153D+01
 Coeff-En:   0.000D+00 0.100D+01
 Coeff:     -0.242D+00 0.124D+01
 Gap=    -0.092 Goal=   None    Shift=    0.000
 RMSDP=7.82D-03 MaxDP=3.09D-01 DE=-5.97D-01 OVMax= 9.20D-01

 Cycle   3  Pass 1  IDiag  1:
 Density matrix breaks symmetry, PCut= 1.00D-04
 Density has only Abelian symmetry.
 E= -1721.80632901186     Delta-E=        1.733025931115 Rises=F Damp=F
 DIIS: error= 2.93D-01 at cycle   3 NSaved=   3.
 NSaved= 3 IEnMin= 2 EnMin= -1723.53935494298     IErMin= 2 ErrMin= 5.42D-02
 ErrMax= 2.93D-01  0.00D+00 EMaxC= 1.00D-01 BMatC= 4.76D+00 BMatP= 3.25D-01
 IDIUse=2 WtCom= 0.00D+00 WtEn= 1.00D+00
 EnCoef did   100 forward-backward iterations
 Coeff-En:   0.570D+00 0.190D-01 0.411D+00
 Coeff:      0.570D+00 0.190D-01 0.411D+00
 Gap=     0.186 Goal=   None    Shift=    0.000
 RMSDP=5.26D-03 MaxDP=1.97D-01 DE= 1.73D+00 OVMax= 2.48D-01

 Cycle   4  Pass 1  IDiag  1:
 Density matrix breaks symmetry, PCut= 1.00D-04
 Density has only Abelian symmetry.
 E= -1723.95869792256     Delta-E=       -2.152368910698 Rises=F Damp=F
 DIIS: error= 7.67D-02 at cycle   4 NSaved=   4.
 NSaved= 4 IEnMin= 4 EnMin= -1723.95869792256     IErMin= 2 ErrMin= 5.42D-02
 ErrMax= 7.67D-02  0.00D+00 EMaxC= 1.00D-01 BMatC= 7.72D-01 BMatP= 3.25D-01
 IDIUse=2 WtCom= 0.00D+00 WtEn= 1.00D+00
 EnCoef did   100 forward-backward iterations
 Coeff-En:   0.378D+00 0.470D-02 0.161D+00 0.457D+00
 Coeff:      0.378D+00 0.470D-02 0.161D+00 0.457D+00
 Gap=     0.204 Goal=   None    Shift=    0.000
 RMSDP=3.22D-03 MaxDP=1.02D-01 DE=-2.15D+00 OVMax= 1.53D-01

 Cycle   5  Pass 1  IDiag  1:
 Density matrix breaks symmetry, PCut= 1.00D-04
 Density has only Abelian symmetry.
 E= -1724.29619788881     Delta-E=       -0.337499966246 Rises=F Damp=F
 DIIS: error= 3.62D-02 at cycle   5 NSaved=   5.
 NSaved= 5 IEnMin= 5 EnMin= -1724.29619788881     IErMin= 5 ErrMin= 3.62D-02
 ErrMax= 3.62D-02  0.00D+00 EMaxC= 1.00D-01 BMatC= 2.44D-01 BMatP= 3.25D-01
 IDIUse=3 WtCom= 6.38D-01 WtEn= 3.62D-01
 EnCoef did     5 forward-backward iterations
 Coeff-Com:  0.677D-01 0.173D-01-0.588D-01 0.381D+00 0.593D+00
 Coeff-En:   0.594D-01 0.000D+00 0.000D+00 0.324D+00 0.616D+00
 Coeff:      0.647D-01 0.111D-01-0.375D-01 0.361D+00 0.601D+00
 Gap=     0.185 Goal=   None    Shift=    0.000
 RMSDP=1.73D-03 MaxDP=4.29D-02 DE=-3.37D-01 OVMax= 7.36D-02

 Cycle   6  Pass 1  IDiag  1:
 Density matrix breaks symmetry, PCut= 1.00D-04
 Density has only Abelian symmetry.
 E= -1724.45926785417     Delta-E=       -0.163069965367 Rises=F Damp=F
 DIIS: error= 2.54D-02 at cycle   6 NSaved=   6.
 NSaved= 6 IEnMin= 6 EnMin= -1724.45926785417     IErMin= 6 ErrMin= 2.54D-02
 ErrMax= 2.54D-02  0.00D+00 EMaxC= 1.00D-01 BMatC= 3.59D-02 BMatP= 2.44D-01
 IDIUse=3 WtCom= 7.46D-01 WtEn= 2.54D-01
 Coeff-Com: -0.583D-01 0.778D-01-0.370D-02 0.105D+00 0.281D+00 0.598D+00
 Coeff-En:   0.000D+00 0.000D+00 0.000D+00 0.000D+00 0.881D-01 0.912D+00
 Coeff:     -0.435D-01 0.581D-01-0.276D-02 0.784D-01 0.232D+00 0.678D+00
 Gap=     0.209 Goal=   None    Shift=    0.000
 RMSDP=1.14D-03 MaxDP=5.43D-02 DE=-1.63D-01 OVMax= 9.08D-02

 Cycle   7  Pass 1  IDiag  1:
 Density matrix breaks symmetry, PCut= 1.00D-04
 Density has only Abelian symmetry.
 E= -1724.43653344965     Delta-E=        0.022734404523 Rises=F Damp=F
 DIIS: error= 3.79D-02 at cycle   7 NSaved=   7.
 NSaved= 7 IEnMin= 6 EnMin= -1724.45926785417     IErMin= 6 ErrMin= 2.54D-02
 ErrMax= 3.79D-02  0.00D+00 EMaxC= 1.00D-01 BMatC= 7.74D-02 BMatP= 3.59D-02
 IDIUse=2 WtCom= 0.00D+00 WtEn= 1.00D+00
 Coeff-En:   0.000D+00 0.000D+00 0.000D+00 0.000D+00 0.000D+00 0.603D+00
 Coeff-En:   0.397D+00
 Coeff:      0.000D+00 0.000D+00 0.000D+00 0.000D+00 0.000D+00 0.603D+00
 Coeff:      0.397D+00
 Gap=     0.196 Goal=   None    Shift=    0.000
 RMSDP=8.23D-04 MaxDP=3.54D-02 DE= 2.27D-02 OVMax= 6.38D-02

 Cycle   8  Pass 1  IDiag  1:
 Density matrix breaks symmetry, PCut= 1.00D-04
 Density has only Abelian symmetry.
 E= -1724.46985243709     Delta-E=       -0.033318987440 Rises=F Damp=F
 DIIS: error= 1.09D-02 at cycle   8 NSaved=   8.
 NSaved= 8 IEnMin= 8 EnMin= -1724.46985243709     IErMin= 8 ErrMin= 1.09D-02
 ErrMax= 1.09D-02  0.00D+00 EMaxC= 1.00D-01 BMatC= 1.77D-02 BMatP= 3.59D-02
 IDIUse=3 WtCom= 8.91D-01 WtEn= 1.09D-01
 EnCoef did     5 forward-backward iterations
 Coeff-Com: -0.908D-02 0.450D-02-0.615D-02 0.167D-01-0.828D-02 0.346D+00
 Coeff-Com:  0.268D+00 0.388D+00
 Coeff-En:   0.000D+00 0.000D+00 0.000D+00 0.000D+00 0.000D+00 0.394D+00
 Coeff-En:   0.295D+00 0.311D+00
 Coeff:     -0.809D-02 0.401D-02-0.548D-02 0.149D-01-0.738D-02 0.352D+00
 Coeff:      0.271D+00 0.379D+00
 Gap=     0.198 Goal=   None    Shift=    0.000
 RMSDP=3.39D-04 MaxDP=9.67D-03 DE=-3.33D-02 OVMax= 1.62D-02

 Cycle   9  Pass 1  IDiag  1:
 Density matrix breaks symmetry, PCut= 1.00D-04
 Density has only Abelian symmetry.
 E= -1724.48268445607     Delta-E=       -0.012832018975 Rises=F Damp=F
 DIIS: error= 9.69D-04 at cycle   9 NSaved=   9.
 NSaved= 9 IEnMin= 9 EnMin= -1724.48268445607     IErMin= 9 ErrMin= 9.69D-04
 ErrMax= 9.69D-04  0.00D+00 EMaxC= 1.00D-01 BMatC= 8.89D-05 BMatP= 1.77D-02
 IDIUse=3 WtCom= 9.90D-01 WtEn= 9.69D-03
 Coeff-Com: -0.181D-02-0.123D-02-0.229D-02 0.502D-02-0.304D-01 0.132D+00
 Coeff-Com:  0.117D+00 0.257D+00 0.525D+00
 Coeff-En:   0.000D+00 0.000D+00 0.000D+00 0.000D+00 0.000D+00 0.000D+00
 Coeff-En:   0.000D+00 0.000D+00 0.100D+01
 Coeff:     -0.179D-02-0.122D-02-0.227D-02 0.497D-02-0.301D-01 0.131D+00
 Coeff:      0.116D+00 0.254D+00 0.529D+00
 Gap=     0.197 Goal=   None    Shift=    0.000
 RMSDP=2.35D-05 MaxDP=7.17D-04 DE=-1.28D-02 OVMax= 1.55D-03

 Cycle  10  Pass 1  IDiag  1:
 Density matrix breaks symmetry, PCut= 1.00D-04
 Density has only Abelian symmetry.
 E= -1724.48274020033     Delta-E=       -0.000055744268 Rises=F Damp=F
 DIIS: error= 1.13D-04 at cycle  10 NSaved=  10.
 NSaved=10 IEnMin=10 EnMin= -1724.48274020033     IErMin=10 ErrMin= 1.13D-04
 ErrMax= 1.13D-04  0.00D+00 EMaxC= 1.00D-01 BMatC= 2.84D-06 BMatP= 8.89D-05
 IDIUse=3 WtCom= 9.99D-01 WtEn= 1.13D-03
 Coeff-Com: -0.264D-03-0.119D-04-0.442D-03-0.152D-03-0.923D-02 0.248D-01
 Coeff-Com:  0.200D-01 0.609D-01 0.320D+00 0.585D+00
 Coeff-En:   0.000D+00 0.000D+00 0.000D+00 0.000D+00 0.000D+00 0.000D+00
 Coeff-En:   0.000D+00 0.000D+00 0.000D+00 0.100D+01
 Coeff:     -0.264D-03-0.119D-04-0.442D-03-0.152D-03-0.922D-02 0.248D-01
 Coeff:      0.199D-01 0.608D-01 0.319D+00 0.585D+00
 Gap=     0.197 Goal=   None    Shift=    0.000
 RMSDP=5.36D-06 MaxDP=1.55D-04 DE=-5.57D-05 OVMax= 2.43D-04

 Cycle  11  Pass 1  IDiag  1:
 E= -1724.48274222988     Delta-E=       -0.000002029552 Rises=F Damp=F
 DIIS: error= 5.98D-05 at cycle  11 NSaved=  11.
 NSaved=11 IEnMin=11 EnMin= -1724.48274222988     IErMin=11 ErrMin= 5.98D-05
 ErrMax= 5.98D-05  0.00D+00 EMaxC= 1.00D-01 BMatC= 2.09D-07 BMatP= 2.84D-06
 IDIUse=1 WtCom= 1.00D+00 WtEn= 0.00D+00
 Coeff-Com:  0.911D-04 0.142D-04-0.127D-04 0.443D-04-0.693D-03-0.255D-02
 Coeff-Com: -0.277D-02 0.142D-02 0.149D-01 0.340D-01 0.956D+00
 Coeff:      0.911D-04 0.142D-04-0.127D-04 0.443D-04-0.693D-03-0.255D-02
 Coeff:     -0.277D-02 0.142D-02 0.149D-01 0.340D-01 0.956D+00
 Gap=     0.197 Goal=   None    Shift=    0.000
 RMSDP=1.79D-06 MaxDP=7.49D-05 DE=-2.03D-06 OVMax= 9.80D-05

 Cycle  12  Pass 1  IDiag  1:
 E= -1724.48274235014     Delta-E=       -0.000000120258 Rises=F Damp=F
 DIIS: error= 2.53D-05 at cycle  12 NSaved=  12.
 NSaved=12 IEnMin=12 EnMin= -1724.48274235014     IErMin=12 ErrMin= 2.53D-05
 ErrMax= 2.53D-05  0.00D+00 EMaxC= 1.00D-01 BMatC= 3.88D-08 BMatP= 2.09D-07
 IDIUse=1 WtCom= 1.00D+00 WtEn= 0.00D+00
 Coeff-Com:  0.227D-04-0.273D-04 0.113D-04-0.195D-05 0.137D-03-0.292D-03
 Coeff-Com: -0.868D-03-0.947D-03-0.754D-02-0.912D-02-0.116D-01 0.103D+01
 Coeff:      0.227D-04-0.273D-04 0.113D-04-0.195D-05 0.137D-03-0.292D-03
 Coeff:     -0.868D-03-0.947D-03-0.754D-02-0.912D-02-0.116D-01 0.103D+01
 Gap=     0.197 Goal=   None    Shift=    0.000
 RMSDP=5.10D-07 MaxDP=1.81D-05 DE=-1.20D-07 OVMax= 3.14D-05

 Cycle  13  Pass 1  IDiag  1:
 E= -1724.48274237402     Delta-E=       -0.000000023880 Rises=F Damp=F
 DIIS: error= 8.08D-07 at cycle  13 NSaved=  13.
 NSaved=13 IEnMin=13 EnMin= -1724.48274237402     IErMin=13 ErrMin= 8.08D-07
 ErrMax= 8.08D-07  0.00D+00 EMaxC= 1.00D-01 BMatC= 7.91D-11 BMatP= 3.88D-08
 IDIUse=1 WtCom= 1.00D+00 WtEn= 0.00D+00
 Coeff-Com:  0.271D-05-0.381D-05-0.520D-07-0.108D-06 0.101D-04-0.898D-05
 Coeff-Com: -0.294D-04-0.215D-04-0.444D-03-0.564D-03-0.120D-01 0.460D-01
 Coeff-Com:  0.967D+00
 Coeff:      0.271D-05-0.381D-05-0.520D-07-0.108D-06 0.101D-04-0.898D-05
 Coeff:     -0.294D-04-0.215D-04-0.444D-03-0.564D-03-0.120D-01 0.460D-01
 Coeff:      0.967D+00
 Gap=     0.197 Goal=   None    Shift=    0.000
 RMSDP=2.87D-08 MaxDP=1.77D-06 DE=-2.39D-08 OVMax= 1.11D-06

 Cycle  14  Pass 1  IDiag  1:
 E= -1724.48274237396     Delta-E=        0.000000000059 Rises=F Damp=F
 DIIS: error= 5.22D-07 at cycle  14 NSaved=  14.
 NSaved=14 IEnMin=13 EnMin= -1724.48274237402     IErMin=14 ErrMin= 5.22D-07
 ErrMax= 5.22D-07  0.00D+00 EMaxC= 1.00D-01 BMatC= 1.71D-11 BMatP= 7.91D-11
 IDIUse=1 WtCom= 1.00D+00 WtEn= 0.00D+00
 Coeff-Com:  0.158D-07-0.150D-06 0.482D-07 0.178D-06-0.254D-05 0.687D-05
 Coeff-Com: -0.158D-05 0.239D-04 0.351D-04 0.121D-03-0.181D-02-0.557D-02
 Coeff-Com:  0.603D-01 0.947D+00
 Coeff:      0.158D-07-0.150D-06 0.482D-07 0.178D-06-0.254D-05 0.687D-05
 Coeff:     -0.158D-05 0.239D-04 0.351D-04 0.121D-03-0.181D-02-0.557D-02
 Coeff:      0.603D-01 0.947D+00
 Gap=     0.197 Goal=   None    Shift=    0.000
 RMSDP=1.03D-08 MaxDP=4.57D-07 DE= 5.91D-11 OVMax= 8.11D-07

 Cycle  15  Pass 1  IDiag  1:
 E= -1724.48274237399     Delta-E=       -0.000000000030 Rises=F Damp=F
 DIIS: error= 1.86D-08 at cycle  15 NSaved=  15.
 NSaved=15 IEnMin=13 EnMin= -1724.48274237402     IErMin=15 ErrMin= 1.86D-08
 ErrMax= 1.86D-08  0.00D+00 EMaxC= 1.00D-01 BMatC= 2.80D-14 BMatP= 1.71D-11
 IDIUse=1 WtCom= 1.00D+00 WtEn= 0.00D+00
 Large coefficients: NSaved= 15 BigCof=    0.00 CofMax=   10.00 Det=-9.70D-15
 Inversion failed.  Reducing to 14 matrices.
 Coeff-Com: -0.112D-07 0.157D-07 0.432D-07-0.193D-06 0.551D-06-0.259D-06
 Coeff-Com:  0.119D-05 0.821D-06 0.296D-05-0.140D-04 0.860D-03-0.653D-02
 Coeff-Com:  0.587D-01 0.947D+00
 Coeff:     -0.112D-07 0.157D-07 0.432D-07-0.193D-06 0.551D-06-0.259D-06
 Coeff:      0.119D-05 0.821D-06 0.296D-05-0.140D-04 0.860D-03-0.653D-02
 Coeff:      0.587D-01 0.947D+00
 Gap=     0.197 Goal=   None    Shift=    0.000
 RMSDP=4.27D-10 MaxDP=1.37D-08 DE=-3.05D-11 OVMax= 2.79D-08

 SCF Done:  E(RB3LYP) =  -1724.48274237     A.U. after   15 cycles
            NFock= 15  Conv=0.43D-09     -V/T= 2.0046
 KE= 1.716579008359D+03 PE=-6.028822754225D+03 EE= 1.608694572440D+03
 Leave Link  502 at Wed Oct  5 17:52:19 2016, MaxMem=  3221225472 cpu:        34.2
 (Enter /home/Andriy.Zhugayevych/local/gaussian/g09/l601.exe)
 Copying SCF densities to generalized density rwf, IOpCl= 0 IROHF=0.

 **********************************************************************

            Population analysis using the SCF density.

 **********************************************************************

 Orbital symmetries:
       Occupied  (A1G) (A1G) (T1U) (T1U) (T1U) (EG) (EG) (T1U)
                 (T1U) (T1U) (A1G) (A1G) (T1U) (T1U) (T1U) (EG)
                 (EG) (A1G) (T1U) (T1U) (T1U) (A1G) (T1U) (T1U)
                 (T1U) (EG) (EG) (A1G) (T1U) (T1U) (T1U) (EG) (EG)
                 (A1G) (T2G) (T2G) (T2G) (T1U) (T1U) (T1U) (T2U)
                 (T2U) (T2U) (T1G) (T1G) (T1G) (EG) (EG) (T1U)
                 (T1U) (T1U) (T2G) (T2G) (T2G)
       Virtual   (T1U) (T1U) (T1U) (T2U) (T2U) (T2U) (T2G) (T2G)
                 (T2G) (T1G) (T1G) (T1G) (EG) (EG) (A1G) (T1U)
                 (T1U) (T1U) (EG) (EG) (A1G) (T1U) (T1U) (T1U)
                 (T2G) (T2G) (T2G) (T1U) (T1U) (T1U) (T2U) (T2U)
                 (T2U) (A1G) (T1U) (T1U) (T1U) (EG) (EG) (T1G)
                 (T1G) (T1G) (A1G) (T1U) (T1U) (T1U) (A1G) (EG)
                 (EG) (T1U) (T1U) (T1U) (T2G) (T2G) (T2G) (T2U)
                 (T2U) (T2U) (EG) (EG) (A1G) (T1U) (T1U) (T1U)
                 (T1G) (T1G) (T1G) (T2G) (T2G) (T2G) (T2U) (T2U)
                 (T2U) (A2U) (EU) (EU) (T2G) (T2G) (T2G) (A2G)
                 (T1U) (T1U) (T1U) (T2U) (T2U) (T2U) (T1G) (T1G)
                 (T1G) (EG) (EG) (T1U) (T1U) (T1U) (EG) (EG) (A1G)
                 (EG) (EG) (T1U) (T1U) (T1U) (T2G) (T2G) (T2G)
                 (A2U) (EU) (EU) (T2G) (T2G) (T2G) (A2G) (T2U)
                 (T2U) (T2U) (EG) (EG) (T2U) (T2U) (T2U) (T1U)
                 (T1U) (T1U) (A2U) (A1G) (T1G) (T1G) (T1G) (T1U)
                 (T1U) (T1U) (T2G) (T2G) (T2G) (T2U) (T2U) (T2U)
                 (EG) (EG) (T1U) (T1U) (T1U) (A1G) (EG) (EG) (A1G)
                 (T1U) (T1U) (T1U) (T1U) (T1U) (T1U) (A1G) (EG)
                 (EG) (EG) (EG) (T1U) (T1U) (T1U) (A1G) (A1G)
 The electronic state is 1-A1G.
 Alpha  occ. eigenvalues -- -215.78077 -24.78438 -21.07557 -21.07557 -21.07557
 Alpha  occ. eigenvalues --  -19.25266 -19.25266 -19.25266 -19.25266 -19.25266
 Alpha  occ. eigenvalues --  -19.25266 -10.32538 -10.32537 -10.32537 -10.32537
 Alpha  occ. eigenvalues --  -10.32536 -10.32536  -2.91039  -1.85668  -1.85668
 Alpha  occ. eigenvalues --   -1.85668  -1.15431  -1.15328  -1.15328  -1.15328
 Alpha  occ. eigenvalues --   -1.15290  -1.15290  -0.62413  -0.57802  -0.57802
 Alpha  occ. eigenvalues --   -0.57802  -0.57449  -0.57449  -0.51081  -0.48614
 Alpha  occ. eigenvalues --   -0.48614  -0.48614  -0.48368  -0.48368  -0.48368
 Alpha  occ. eigenvalues --   -0.46708  -0.46708  -0.46708  -0.46032  -0.46032
 Alpha  occ. eigenvalues --   -0.46032  -0.45481  -0.45481  -0.42120  -0.42120
 Alpha  occ. eigenvalues --   -0.42120  -0.25430  -0.25430  -0.25430
 Alpha virt. eigenvalues --   -0.05704  -0.05704  -0.05704  -0.03637  -0.03637
 Alpha virt. eigenvalues --   -0.03637  -0.01373  -0.01373  -0.01373   0.01621
 Alpha virt. eigenvalues --    0.01621   0.01621   0.01873   0.01873   0.01940
 Alpha virt. eigenvalues --    0.04779   0.04779   0.04779   0.34452   0.34452
 Alpha virt. eigenvalues --    0.35640   0.36612   0.36612   0.36612   0.47051
 Alpha virt. eigenvalues --    0.47051   0.47051   0.51877   0.51877   0.51877
 Alpha virt. eigenvalues --    0.57766   0.57766   0.57766   0.57771   0.68484
 Alpha virt. eigenvalues --    0.68484   0.68484   0.68888   0.68888   0.71540
 Alpha virt. eigenvalues --    0.71540   0.71540   0.74300   0.75218   0.75218
 Alpha virt. eigenvalues --    0.75218   0.76199   0.78989   0.78989   0.84942
 Alpha virt. eigenvalues --    0.84942   0.84942   0.90219   0.90219   0.90219
 Alpha virt. eigenvalues --    0.95811   0.95811   0.95811   1.00810   1.00810
 Alpha virt. eigenvalues --    1.03677   1.04483   1.04483   1.04483   1.12223
 Alpha virt. eigenvalues --    1.12223   1.12223   1.16365   1.16365   1.16365
 Alpha virt. eigenvalues --    1.43255   1.43255   1.43255   1.45205   1.47034
 Alpha virt. eigenvalues --    1.47034   1.47185   1.47185   1.47185   1.47802
 Alpha virt. eigenvalues --    1.48844   1.48844   1.48844   1.51013   1.51013
 Alpha virt. eigenvalues --    1.51013   1.53781   1.53781   1.53781   1.54035
 Alpha virt. eigenvalues --    1.54035   1.67222   1.67222   1.67222   1.70579
 Alpha virt. eigenvalues --    1.70579   1.72449   1.74011   1.74011   1.74499
 Alpha virt. eigenvalues --    1.74499   1.74499   1.76138   1.76138   1.76138
 Alpha virt. eigenvalues --    1.88729   1.92607   1.92607   1.93181   1.93181
 Alpha virt. eigenvalues --    1.93181   1.93403   1.94639   1.94639   1.94639
 Alpha virt. eigenvalues --    2.03212   2.03212   2.15690   2.15690   2.15690
 Alpha virt. eigenvalues --    2.16599   2.16599   2.16599   2.19923   2.40421
 Alpha virt. eigenvalues --    2.57836   2.57836   2.57836   2.65161   2.65161
 Alpha virt. eigenvalues --    2.65161   2.74333   2.74333   2.74333   2.76349
 Alpha virt. eigenvalues --    2.76349   2.76349   2.91929   2.91929   2.97831
 Alpha virt. eigenvalues --    2.97831   2.97831   3.01202   3.13292   3.13292
 Alpha virt. eigenvalues --    3.18999   3.28227   3.28227   3.28227   3.90289
 Alpha virt. eigenvalues --    3.90289   3.90289   3.99037   4.17905   4.17905
 Alpha virt. eigenvalues --    4.51600   4.51600   4.56113   4.56113   4.56113
 Alpha virt. eigenvalues --    4.71047  14.54763
          Condensed to atoms (all electrons):
               1          2          3          4          5          6
     1  Cr  22.403238   0.260244   0.260244   0.260244   0.260244   0.260244
     2  C    0.260244   4.886478   0.004859  -0.001537   0.004859   0.004859
     3  C    0.260244   0.004859   4.886478   0.004859  -0.001537   0.004859
     4  C    0.260244  -0.001537   0.004859   4.886478   0.004859   0.004859
     5  C    0.260244   0.004859  -0.001537   0.004859   4.886478   0.004859
     6  C    0.260244   0.004859   0.004859   0.004859   0.004859   4.886478
     7  C    0.260244   0.004859   0.004859   0.004859   0.004859  -0.001537
     8  O   -0.003402   0.541602  -0.001689   0.000003  -0.001689  -0.001689
     9  O   -0.003402  -0.001689   0.541602  -0.001689   0.000003  -0.001689
    10  O   -0.003402   0.000003  -0.001689   0.541602  -0.001689  -0.001689
    11  O   -0.003402  -0.001689   0.000003  -0.001689   0.541602  -0.001689
    12  O   -0.003402  -0.001689  -0.001689  -0.001689  -0.001689   0.541602
    13  O   -0.003402  -0.001689  -0.001689  -0.001689  -0.001689   0.000003
               7          8          9         10         11         12
     1  Cr   0.260244  -0.003402  -0.003402  -0.003402  -0.003402  -0.003402
     2  C    0.004859   0.541602  -0.001689   0.000003  -0.001689  -0.001689
     3  C    0.004859  -0.001689   0.541602  -0.001689   0.000003  -0.001689
     4  C    0.004859   0.000003  -0.001689   0.541602  -0.001689  -0.001689
     5  C    0.004859  -0.001689   0.000003  -0.001689   0.541602  -0.001689
     6  C   -0.001537  -0.001689  -0.001689  -0.001689  -0.001689   0.541602
     7  C    4.886478  -0.001689  -0.001689  -0.001689  -0.001689   0.000003
     8  O   -0.001689   7.778200   0.000041   0.000000   0.000041   0.000041
     9  O   -0.001689   0.000041   7.778200   0.000041   0.000000   0.000041
    10  O   -0.001689   0.000000   0.000041   7.778200   0.000041   0.000041
    11  O   -0.001689   0.000041   0.000000   0.000041   7.778200   0.000041
    12  O    0.000003   0.000041   0.000041   0.000041   0.000041   7.778200
    13  O    0.541602   0.000041   0.000041   0.000041   0.000041   0.000000
              13
     1  Cr  -0.003402
     2  C   -0.001689
     3  C   -0.001689
     4  C   -0.001689
     5  C   -0.001689
     6  C    0.000003
     7  C    0.541602
     8  O    0.000041
     9  O    0.000041
    10  O    0.000041
    11  O    0.000041
    12  O    0.000000
    13  O    7.778200
 Mulliken charges:
               1
     1  Cr   0.055706
     2  C    0.300528
     3  C    0.300528
     4  C    0.300528
     5  C    0.300528
     6  C    0.300528
     7  C    0.300528
     8  O   -0.309812
     9  O   -0.309812
    10  O   -0.309812
    11  O   -0.309812
    12  O   -0.309812
    13  O   -0.309812
 Sum of Mulliken charges =   0.00000
 Mulliken charges with hydrogens summed into heavy atoms:
               1
     1  Cr   0.055706
     2  C    0.300528
     3  C    0.300528
     4  C    0.300528
     5  C    0.300528
     6  C    0.300528
     7  C    0.300528
     8  O   -0.309812
     9  O   -0.309812
    10  O   -0.309812
    11  O   -0.309812
    12  O   -0.309812
    13  O   -0.309812
 Electronic spatial extent (au):  <R**2>=           2267.3312
 Charge=              0.0000 electrons
 Dipole moment (field-independent basis, Debye):
    X=              0.0000    Y=              0.0000    Z=              0.0000  Tot=              0.0000
 Quadrupole moment (field-independent basis, Debye-Ang):
   XX=            -83.0964   YY=            -83.0964   ZZ=            -83.0964
   XY=              0.0000   XZ=              0.0000   YZ=              0.0000
 Traceless Quadrupole moment (field-independent basis, Debye-Ang):
   XX=              0.0000   YY=              0.0000   ZZ=              0.0000
   XY=              0.0000   XZ=              0.0000   YZ=              0.0000
 Octapole moment (field-independent basis, Debye-Ang**2):
  XXX=              0.0000  YYY=              0.0000  ZZZ=              0.0000  XYY=              0.0000
  XXY=              0.0000  XXZ=              0.0000  XZZ=              0.0000  YZZ=              0.0000
  YYZ=              0.0000  XYZ=              0.0000
 Hexadecapole moment (field-independent basis, Debye-Ang**3):
 XXXX=           -991.5860 YYYY=           -991.5860 ZZZZ=           -991.5860 XXXY=              0.0000
 XXXZ=              0.0000 YYYX=              0.0000 YYYZ=              0.0000 ZZZX=              0.0000
 ZZZY=              0.0000 XXYY=           -284.1063 XXZZ=           -284.1063 YYZZ=           -284.1063
 XXYZ=              0.0000 YYXZ=              0.0000 ZZXY=              0.0000
 N-N= 9.790664310517D+02 E-N=-6.028822757821D+03  KE= 1.716579008359D+03
 Symmetry AG   KE= 9.892794578089D+02
 Symmetry B1G  KE= 1.460432177501D+01
 Symmetry B2G  KE= 1.460432177501D+01
 Symmetry B3G  KE= 1.460432177501D+01
 Symmetry AU   KE= 9.716545878956D-33
 Symmetry B1U  KE= 2.278288617418D+02
 Symmetry B2U  KE= 2.278288617418D+02
 Symmetry B3U  KE= 2.278288617418D+02
 No NMR shielding tensors so no spin-rotation constants.
 Leave Link  601 at Wed Oct  5 17:52:20 2016, MaxMem=  3221225472 cpu:         1.5
 (Enter /home/Andriy.Zhugayevych/local/gaussian/g09/l607.exe)
 ******************************Gaussian NBO Version 3.1******************************
             N A T U R A L   A T O M I C   O R B I T A L   A N D
          N A T U R A L   B O N D   O R B I T A L   A N A L Y S I S
 ******************************Gaussian NBO Version 3.1******************************
       /RESON  / : Allow strongly delocalized NBO set

 Analyzing the SCF density

 Job title:                                                                 

 Storage needed:    141042 in NPA,    187477 in NBO (3221224445 available)


 NATURAL POPULATIONS:  Natural atomic orbital occupancies 
                                                          
   NAO  Atom  No  lang   Type(AO)    Occupancy      Energy
 ----------------------------------------------------------
     1   Cr    1  S      Cor( 1S)     2.00000    -210.68788
     2   Cr    1  S      Cor( 2S)     2.00000     -28.52353
     3   Cr    1  S      Cor( 3S)     1.98219      -4.05448
     4   Cr    1  S      Val( 4S)     0.49455       0.16031
     5   Cr    1  S      Ryd( 5S)     0.00405       0.48919
     6   Cr    1  S      Ryd( 6S)     0.00002       3.62088
     7   Cr    1  S      Ryd( 7S)     0.00000      13.90226
     8   Cr    1  px     Cor( 2p)     1.99999     -21.00179
     9   Cr    1  px     Cor( 3p)     1.99386      -1.88610
    10   Cr    1  px     Val( 5p)     0.46364       0.28765
    11   Cr    1  px     Ryd( 4p)     0.00155       0.23565
    12   Cr    1  py     Cor( 2p)     1.99999     -21.00179
    13   Cr    1  py     Cor( 3p)     1.99386      -1.88610
    14   Cr    1  py     Val( 5p)     0.46364       0.28765
    15   Cr    1  py     Ryd( 4p)     0.00155       0.23565
    16   Cr    1  pz     Cor( 2p)     1.99999     -21.00179
    17   Cr    1  pz     Cor( 3p)     1.99386      -1.88610
    18   Cr    1  pz     Val( 5p)     0.46364       0.28765
    19   Cr    1  pz     Ryd( 4p)     0.00155       0.23565
    20   Cr    1  dxy    Val( 3d)     1.24246      -0.15925
    21   Cr    1  dxy    Ryd( 4d)     0.00050       1.27343
    22   Cr    1  dxz    Val( 3d)     1.24246      -0.15925
    23   Cr    1  dxz    Ryd( 4d)     0.00050       1.27343
    24   Cr    1  dyz    Val( 3d)     1.24246      -0.15925
    25   Cr    1  dyz    Ryd( 4d)     0.00050       1.27343
    26   Cr    1  dx2y2  Val( 3d)     0.69810      -0.12974
    27   Cr    1  dx2y2  Ryd( 4d)     0.00264       1.70800
    28   Cr    1  dz2    Val( 3d)     0.69810      -0.12974
    29   Cr    1  dz2    Ryd( 4d)     0.00264       1.70800
    30   Cr    1  f(0)   Ryd( 4f)     0.00015       2.48738
    31   Cr    1  f(C1)  Ryd( 4f)     0.00006       2.32920
    32   Cr    1  f(S1)  Ryd( 4f)     0.00006       2.32920
    33   Cr    1  f(C2)  Ryd( 4f)     0.00001       2.23429
    34   Cr    1  f(S2)  Ryd( 4f)     0.00000       2.15003
    35   Cr    1  f(C3)  Ryd( 4f)     0.00010       2.39247
    36   Cr    1  f(S3)  Ryd( 4f)     0.00010       2.39247

    37    C    2  S      Cor( 1S)     1.99869     -10.19232
    38    C    2  S      Val( 2S)     1.20945      -0.33629
    39    C    2  S      Ryd( 3S)     0.03362       1.24512
    40    C    2  S      Ryd( 4S)     0.00006       4.18537
    41    C    2  px     Val( 2p)     0.67063      -0.14275
    42    C    2  px     Ryd( 3p)     0.00363       0.66946
    43    C    2  py     Val( 2p)     0.67063      -0.14275
    44    C    2  py     Ryd( 3p)     0.00363       0.66946
    45    C    2  pz     Val( 2p)     0.79238       0.00767
    46    C    2  pz     Ryd( 3p)     0.01871       1.02531
    47    C    2  dxy    Ryd( 3d)     0.00006       1.69176
    48    C    2  dxz    Ryd( 3d)     0.00205       2.34965
    49    C    2  dyz    Ryd( 3d)     0.00205       2.34965
    50    C    2  dx2y2  Ryd( 3d)     0.00005       1.77548
    51    C    2  dz2    Ryd( 3d)     0.00103       2.90401

    52    C    3  S      Cor( 1S)     1.99869     -10.19232
    53    C    3  S      Val( 2S)     1.20945      -0.33629
    54    C    3  S      Ryd( 3S)     0.03362       1.24512
    55    C    3  S      Ryd( 4S)     0.00006       4.18537
    56    C    3  px     Val( 2p)     0.67063      -0.14275
    57    C    3  px     Ryd( 3p)     0.00363       0.66946
    58    C    3  py     Val( 2p)     0.79238       0.00767
    59    C    3  py     Ryd( 3p)     0.01871       1.02531
    60    C    3  pz     Val( 2p)     0.67063      -0.14275
    61    C    3  pz     Ryd( 3p)     0.00363       0.66946
    62    C    3  dxy    Ryd( 3d)     0.00205       2.34965
    63    C    3  dxz    Ryd( 3d)     0.00006       1.69176
    64    C    3  dyz    Ryd( 3d)     0.00205       2.34965
    65    C    3  dx2y2  Ryd( 3d)     0.00078       2.62188
    66    C    3  dz2    Ryd( 3d)     0.00030       2.05761

    67    C    4  S      Cor( 1S)     1.99869     -10.19232
    68    C    4  S      Val( 2S)     1.20945      -0.33629
    69    C    4  S      Ryd( 3S)     0.03362       1.24512
    70    C    4  S      Ryd( 4S)     0.00006       4.18537
    71    C    4  px     Val( 2p)     0.67063      -0.14275
    72    C    4  px     Ryd( 3p)     0.00363       0.66946
    73    C    4  py     Val( 2p)     0.67063      -0.14275
    74    C    4  py     Ryd( 3p)     0.00363       0.66946
    75    C    4  pz     Val( 2p)     0.79238       0.00767
    76    C    4  pz     Ryd( 3p)     0.01871       1.02531
    77    C    4  dxy    Ryd( 3d)     0.00006       1.69176
    78    C    4  dxz    Ryd( 3d)     0.00205       2.34965
    79    C    4  dyz    Ryd( 3d)     0.00205       2.34965
    80    C    4  dx2y2  Ryd( 3d)     0.00005       1.77548
    81    C    4  dz2    Ryd( 3d)     0.00103       2.90401

    82    C    5  S      Cor( 1S)     1.99869     -10.19232
    83    C    5  S      Val( 2S)     1.20945      -0.33629
    84    C    5  S      Ryd( 3S)     0.03362       1.24512
    85    C    5  S      Ryd( 4S)     0.00006       4.18537
    86    C    5  px     Val( 2p)     0.67063      -0.14275
    87    C    5  px     Ryd( 3p)     0.00363       0.66946
    88    C    5  py     Val( 2p)     0.79238       0.00767
    89    C    5  py     Ryd( 3p)     0.01871       1.02531
    90    C    5  pz     Val( 2p)     0.67063      -0.14275
    91    C    5  pz     Ryd( 3p)     0.00363       0.66946
    92    C    5  dxy    Ryd( 3d)     0.00205       2.34965
    93    C    5  dxz    Ryd( 3d)     0.00006       1.69176
    94    C    5  dyz    Ryd( 3d)     0.00205       2.34965
    95    C    5  dx2y2  Ryd( 3d)     0.00078       2.62188
    96    C    5  dz2    Ryd( 3d)     0.00030       2.05761

    97    C    6  S      Cor( 1S)     1.99869     -10.19232
    98    C    6  S      Val( 2S)     1.20945      -0.33629
    99    C    6  S      Ryd( 3S)     0.03362       1.24512
   100    C    6  S      Ryd( 4S)     0.00006       4.18537
   101    C    6  px     Val( 2p)     0.79238       0.00767
   102    C    6  px     Ryd( 3p)     0.01871       1.02531
   103    C    6  py     Val( 2p)     0.67063      -0.14275
   104    C    6  py     Ryd( 3p)     0.00363       0.66946
   105    C    6  pz     Val( 2p)     0.67063      -0.14275
   106    C    6  pz     Ryd( 3p)     0.00363       0.66946
   107    C    6  dxy    Ryd( 3d)     0.00205       2.34965
   108    C    6  dxz    Ryd( 3d)     0.00205       2.34965
   109    C    6  dyz    Ryd( 3d)     0.00006       1.69176
   110    C    6  dx2y2  Ryd( 3d)     0.00078       2.62188
   111    C    6  dz2    Ryd( 3d)     0.00030       2.05761

   112    C    7  S      Cor( 1S)     1.99869     -10.19232
   113    C    7  S      Val( 2S)     1.20945      -0.33629
   114    C    7  S      Ryd( 3S)     0.03362       1.24512
   115    C    7  S      Ryd( 4S)     0.00006       4.18537
   116    C    7  px     Val( 2p)     0.79238       0.00767
   117    C    7  px     Ryd( 3p)     0.01871       1.02531
   118    C    7  py     Val( 2p)     0.67063      -0.14275
   119    C    7  py     Ryd( 3p)     0.00363       0.66946
   120    C    7  pz     Val( 2p)     0.67063      -0.14275
   121    C    7  pz     Ryd( 3p)     0.00363       0.66946
   122    C    7  dxy    Ryd( 3d)     0.00205       2.34965
   123    C    7  dxz    Ryd( 3d)     0.00205       2.34965
   124    C    7  dyz    Ryd( 3d)     0.00006       1.69176
   125    C    7  dx2y2  Ryd( 3d)     0.00078       2.62188
   126    C    7  dz2    Ryd( 3d)     0.00030       2.05761

   127    O    8  S      Cor( 1S)     1.99975     -18.96805
   128    O    8  S      Val( 2S)     1.69682      -1.00083
   129    O    8  S      Ryd( 3S)     0.00220       2.34794
   130    O    8  S      Ryd( 4S)     0.00007       2.95790
   131    O    8  px     Val( 2p)     1.52006      -0.33886
   132    O    8  px     Ryd( 3p)     0.00120       0.99816
   133    O    8  py     Val( 2p)     1.52006      -0.33886
   134    O    8  py     Ryd( 3p)     0.00120       0.99816
   135    O    8  pz     Val( 2p)     1.66480      -0.42282
   136    O    8  pz     Ryd( 3p)     0.00033       1.34390
   137    O    8  dxy    Ryd( 3d)     0.00000       1.70602
   138    O    8  dxz    Ryd( 3d)     0.00626       1.81762
   139    O    8  dyz    Ryd( 3d)     0.00626       1.81762
   140    O    8  dx2y2  Ryd( 3d)     0.00000       1.70656
   141    O    8  dz2    Ryd( 3d)     0.00953       2.51837

   142    O    9  S      Cor( 1S)     1.99975     -18.96805
   143    O    9  S      Val( 2S)     1.69682      -1.00083
   144    O    9  S      Ryd( 3S)     0.00220       2.34794
   145    O    9  S      Ryd( 4S)     0.00007       2.95790
   146    O    9  px     Val( 2p)     1.52006      -0.33886
   147    O    9  px     Ryd( 3p)     0.00120       0.99816
   148    O    9  py     Val( 2p)     1.66480      -0.42282
   149    O    9  py     Ryd( 3p)     0.00033       1.34390
   150    O    9  pz     Val( 2p)     1.52006      -0.33886
   151    O    9  pz     Ryd( 3p)     0.00120       0.99816
   152    O    9  dxy    Ryd( 3d)     0.00626       1.81762
   153    O    9  dxz    Ryd( 3d)     0.00000       1.70602
   154    O    9  dyz    Ryd( 3d)     0.00626       1.81762
   155    O    9  dx2y2  Ryd( 3d)     0.00715       2.31542
   156    O    9  dz2    Ryd( 3d)     0.00238       1.90951

   157    O   10  S      Cor( 1S)     1.99975     -18.96805
   158    O   10  S      Val( 2S)     1.69682      -1.00083
   159    O   10  S      Ryd( 3S)     0.00220       2.34794
   160    O   10  S      Ryd( 4S)     0.00007       2.95790
   161    O   10  px     Val( 2p)     1.52006      -0.33886
   162    O   10  px     Ryd( 3p)     0.00120       0.99816
   163    O   10  py     Val( 2p)     1.52006      -0.33886
   164    O   10  py     Ryd( 3p)     0.00120       0.99816
   165    O   10  pz     Val( 2p)     1.66480      -0.42282
   166    O   10  pz     Ryd( 3p)     0.00033       1.34390
   167    O   10  dxy    Ryd( 3d)     0.00000       1.70602
   168    O   10  dxz    Ryd( 3d)     0.00626       1.81762
   169    O   10  dyz    Ryd( 3d)     0.00626       1.81762
   170    O   10  dx2y2  Ryd( 3d)     0.00000       1.70656
   171    O   10  dz2    Ryd( 3d)     0.00953       2.51837

   172    O   11  S      Cor( 1S)     1.99975     -18.96805
   173    O   11  S      Val( 2S)     1.69682      -1.00083
   174    O   11  S      Ryd( 3S)     0.00220       2.34794
   175    O   11  S      Ryd( 4S)     0.00007       2.95790
   176    O   11  px     Val( 2p)     1.52006      -0.33886
   177    O   11  px     Ryd( 3p)     0.00120       0.99816
   178    O   11  py     Val( 2p)     1.66480      -0.42282
   179    O   11  py     Ryd( 3p)     0.00033       1.34390
   180    O   11  pz     Val( 2p)     1.52006      -0.33886
   181    O   11  pz     Ryd( 3p)     0.00120       0.99816
   182    O   11  dxy    Ryd( 3d)     0.00626       1.81762
   183    O   11  dxz    Ryd( 3d)     0.00000       1.70602
   184    O   11  dyz    Ryd( 3d)     0.00626       1.81762
   185    O   11  dx2y2  Ryd( 3d)     0.00715       2.31542
   186    O   11  dz2    Ryd( 3d)     0.00238       1.90951

   187    O   12  S      Cor( 1S)     1.99975     -18.96805
   188    O   12  S      Val( 2S)     1.69682      -1.00083
   189    O   12  S      Ryd( 3S)     0.00220       2.34794
   190    O   12  S      Ryd( 4S)     0.00007       2.95790
   191    O   12  px     Val( 2p)     1.66480      -0.42282
   192    O   12  px     Ryd( 3p)     0.00033       1.34390
   193    O   12  py     Val( 2p)     1.52006      -0.33886
   194    O   12  py     Ryd( 3p)     0.00120       0.99816
   195    O   12  pz     Val( 2p)     1.52006      -0.33886
   196    O   12  pz     Ryd( 3p)     0.00120       0.99816
   197    O   12  dxy    Ryd( 3d)     0.00626       1.81762
   198    O   12  dxz    Ryd( 3d)     0.00626       1.81762
   199    O   12  dyz    Ryd( 3d)     0.00000       1.70602
   200    O   12  dx2y2  Ryd( 3d)     0.00715       2.31542
   201    O   12  dz2    Ryd( 3d)     0.00238       1.90951

   202    O   13  S      Cor( 1S)     1.99975     -18.96805
   203    O   13  S      Val( 2S)     1.69682      -1.00083
   204    O   13  S      Ryd( 3S)     0.00220       2.34794
   205    O   13  S      Ryd( 4S)     0.00007       2.95790
   206    O   13  px     Val( 2p)     1.66480      -0.42282
   207    O   13  px     Ryd( 3p)     0.00033       1.34390
   208    O   13  py     Val( 2p)     1.52006      -0.33886
   209    O   13  py     Ryd( 3p)     0.00120       0.99816
   210    O   13  pz     Val( 2p)     1.52006      -0.33886
   211    O   13  pz     Ryd( 3p)     0.00120       0.99816
   212    O   13  dxy    Ryd( 3d)     0.00626       1.81762
   213    O   13  dxz    Ryd( 3d)     0.00626       1.81762
   214    O   13  dyz    Ryd( 3d)     0.00000       1.70602
   215    O   13  dx2y2  Ryd( 3d)     0.00715       2.31542
   216    O   13  dz2    Ryd( 3d)     0.00238       1.90951

 WARNING:  4 low occupancy (<1.9990e) core orbitals found on Cr    1
           1 low occupancy (<1.9990e) core orbital  found on  C    2
           1 low occupancy (<1.9990e) core orbital  found on  C    3
           1 low occupancy (<1.9990e) core orbital  found on  C    4
           1 low occupancy (<1.9990e) core orbital  found on  C    5
           1 low occupancy (<1.9990e) core orbital  found on  C    6
           1 low occupancy (<1.9990e) core orbital  found on  C    7

 WARNING:  Population inversion found on atom Cr    1


 Summary of Natural Population Analysis:                  
                                                          
                                       Natural Population 
                Natural  -----------------------------------------------
    Atom  No    Charge         Core      Valence    Rydberg      Total
 -----------------------------------------------------------------------
     Cr    1   -0.98881     17.96376     7.00904    0.01601    24.98881
      C    2    0.59333      1.99869     3.34309    0.06489     5.40667
      C    3    0.59333      1.99869     3.34309    0.06489     5.40667
      C    4    0.59333      1.99869     3.34309    0.06489     5.40667
      C    5    0.59333      1.99869     3.34309    0.06489     5.40667
      C    6    0.59333      1.99869     3.34309    0.06489     5.40667
      C    7    0.59333      1.99869     3.34309    0.06489     5.40667
      O    8   -0.42853      1.99975     6.40174    0.02704     8.42853
      O    9   -0.42853      1.99975     6.40174    0.02704     8.42853
      O   10   -0.42853      1.99975     6.40174    0.02704     8.42853
      O   11   -0.42853      1.99975     6.40174    0.02704     8.42853
      O   12   -0.42853      1.99975     6.40174    0.02704     8.42853
      O   13   -0.42853      1.99975     6.40174    0.02704     8.42853
 =======================================================================
   * Total *    0.00000     41.95438    65.47802    0.56760   108.00000

                                 Natural Population      
 --------------------------------------------------------
   Core                      41.95438 ( 99.8914% of  42)
   Valence                   65.47802 ( 99.2091% of  66)
   Natural Minimal Basis    107.43240 ( 99.4744% of 108)
   Natural Rydberg Basis      0.56760 (  0.5256% of 108)
 --------------------------------------------------------

    Atom  No          Natural Electron Configuration
 ----------------------------------------------------------------------------
     Cr    1      [core]4S( 0.49)3d( 5.12)4d( 0.01)5p( 1.39)
      C    2      [core]2S( 1.21)2p( 2.13)3S( 0.03)3p( 0.03)3d( 0.01)
      C    3      [core]2S( 1.21)2p( 2.13)3S( 0.03)3p( 0.03)3d( 0.01)
      C    4      [core]2S( 1.21)2p( 2.13)3S( 0.03)3p( 0.03)3d( 0.01)
      C    5      [core]2S( 1.21)2p( 2.13)3S( 0.03)3p( 0.03)3d( 0.01)
      C    6      [core]2S( 1.21)2p( 2.13)3S( 0.03)3p( 0.03)3d( 0.01)
      C    7      [core]2S( 1.21)2p( 2.13)3S( 0.03)3p( 0.03)3d( 0.01)
      O    8      [core]2S( 1.70)2p( 4.70)3d( 0.02)
      O    9      [core]2S( 1.70)2p( 4.70)3d( 0.02)
      O   10      [core]2S( 1.70)2p( 4.70)3d( 0.02)
      O   11      [core]2S( 1.70)2p( 4.70)3d( 0.02)
      O   12      [core]2S( 1.70)2p( 4.70)3d( 0.02)
      O   13      [core]2S( 1.70)2p( 4.70)3d( 0.02)


 NATURAL BOND ORBITAL ANALYSIS:

                       Occupancies       Lewis Structure    Low   High
           Occ.    -------------------  -----------------   occ   occ
  Cycle   Thresh.   Lewis   Non-Lewis     CR  BD  3C  LP    (L)   (NL)   Dev
 =============================================================================
   1(1)    1.90   105.21475   2.78525     21  24   0   9     3     12    0.14
   2(2)    1.90   105.21475   2.78525     21  24   0   9     3     12    0.14
   3(1)    1.80   105.21475   2.78525     21  24   0   9     3     12    0.14
   4(2)    1.80   105.21475   2.78525     21  24   0   9     3     12    0.14
   5(1)    1.70   105.21475   2.78525     21  24   0   9     3     12    0.14
   6(2)    1.70   105.21475   2.78525     21  24   0   9     3     12    0.14
   7(1)    1.60   105.21475   2.78525     21  24   0   9     3     12    0.14
   8(2)    1.60   105.21475   2.78525     21  24   0   9     3     12    0.14
   9(1)    1.50    99.55732   8.44268     21  12   0  21     3     12    1.12
  10(2)    1.50    99.55732   8.44268     21  12   0  21     3     12    1.12
  11(1)    1.90   105.21475   2.78525     21  24   0   9     3     12    0.14
 -----------------------------------------------------------------------------

 Structure accepted: RESONANCE keyword permits strongly delocalized structure

 WARNING:  4 low occupancy (<1.9990e) core orbitals found on Cr    1
           1 low occupancy (<1.9990e) core orbital  found on  C    2
           1 low occupancy (<1.9990e) core orbital  found on  C    3
           1 low occupancy (<1.9990e) core orbital  found on  C    4
           1 low occupancy (<1.9990e) core orbital  found on  C    5
           1 low occupancy (<1.9990e) core orbital  found on  C    6
           1 low occupancy (<1.9990e) core orbital  found on  C    7

 --------------------------------------------------------
   Core                     41.95428 ( 99.891% of  42)
   Valence Lewis            63.26047 ( 95.849% of  66)
  ==================       ============================
   Total Lewis             105.21475 ( 97.421% of 108)
  -----------------------------------------------------
   Valence non-Lewis         2.54808 (  2.359% of 108)
   Rydberg non-Lewis         0.23718 (  0.220% of 108)
  ==================       ============================
   Total non-Lewis           2.78525 (  2.579% of 108)
 --------------------------------------------------------


       (Occupancy)   Bond orbital/ Coefficients/ Hybrids
 ---------------------------------------------------------------------------------
     1. (1.95550) BD ( 1)Cr   1 - C   2  
                ( 27.31%)   0.5226*Cr   1 s( 16.67%)p 3.00( 49.99%)d 2.00( 33.33%)
                                                  f 0.00(  0.01%)
                                            0.0000  0.0000  0.0030 -0.4082 -0.0005
                                            0.0001  0.0000  0.0000  0.0000  0.0000
                                            0.0000  0.0000  0.0000  0.0000  0.0000
                                            0.0000 -0.0019  0.7070 -0.0027  0.0000
                                            0.0000  0.0000  0.0000  0.0000  0.0000
                                            0.0000  0.0000  0.5764 -0.0334  0.0104
                                            0.0000  0.0000  0.0000  0.0000  0.0000
                                            0.0000
                ( 72.69%)   0.8526* C   2 s( 68.11%)p 0.47( 31.89%)d 0.00(  0.00%)
                                            0.0007  0.8229  0.0634  0.0008  0.0000
                                            0.0000  0.0000  0.0000 -0.5643  0.0214
                                            0.0000  0.0000  0.0000  0.0000 -0.0025
     2. (1.95550) BD ( 1)Cr   1 - C   3  
                ( 27.31%)   0.5226*Cr   1 s( 16.67%)p 3.00( 49.99%)d 2.00( 33.33%)
                                                  f 0.00(  0.01%)
                                            0.0000  0.0000  0.0030 -0.4082 -0.0005
                                            0.0001  0.0000  0.0000  0.0000  0.0000
                                            0.0000  0.0000 -0.0019  0.7070 -0.0027
                                            0.0000  0.0000  0.0000  0.0000  0.0000
                                            0.0000  0.0000  0.0000  0.0000  0.0000
                                           -0.4992  0.0290 -0.2882  0.0167  0.0000
                                            0.0000 -0.0064  0.0000  0.0000  0.0000
                                           -0.0082
                ( 72.69%)   0.8526* C   3 s( 68.11%)p 0.47( 31.89%)d 0.00(  0.00%)
                                            0.0007  0.8229  0.0634  0.0008  0.0000
                                            0.0000 -0.5643  0.0214  0.0000  0.0000
                                            0.0000  0.0000  0.0000  0.0022  0.0013
     3. (1.95550) BD ( 1)Cr   1 - C   4  
                ( 27.31%)   0.5226*Cr   1 s( 16.67%)p 3.00( 49.99%)d 2.00( 33.33%)
                                                  f 0.00(  0.01%)
                                            0.0000  0.0000  0.0030 -0.4082 -0.0005
                                            0.0001  0.0000  0.0000  0.0000  0.0000
                                            0.0000  0.0000  0.0000  0.0000  0.0000
                                            0.0000  0.0019 -0.7070  0.0027  0.0000
                                            0.0000  0.0000  0.0000  0.0000  0.0000
                                            0.0000  0.0000  0.5764 -0.0334 -0.0104
                                            0.0000  0.0000  0.0000  0.0000  0.0000
                                            0.0000
                ( 72.69%)   0.8526* C   4 s( 68.11%)p 0.47( 31.89%)d 0.00(  0.00%)
                                            0.0007  0.8229  0.0634  0.0008  0.0000
                                            0.0000  0.0000  0.0000  0.5643 -0.0214
                                            0.0000  0.0000  0.0000  0.0000 -0.0025
     4. (1.95550) BD ( 1)Cr   1 - C   5  
                ( 27.31%)   0.5226*Cr   1 s( 16.67%)p 3.00( 49.99%)d 2.00( 33.33%)
                                                  f 0.00(  0.01%)
                                            0.0000  0.0000  0.0030 -0.4082 -0.0005
                                            0.0001  0.0000  0.0000  0.0000  0.0000
                                            0.0000  0.0000  0.0019 -0.7070  0.0027
                                            0.0000  0.0000  0.0000  0.0000  0.0000
                                            0.0000  0.0000  0.0000  0.0000  0.0000
                                           -0.4992  0.0290 -0.2882  0.0167  0.0000
                                            0.0000  0.0064  0.0000  0.0000  0.0000
                                            0.0082
                ( 72.69%)   0.8526* C   5 s( 68.11%)p 0.47( 31.89%)d 0.00(  0.00%)
                                            0.0007  0.8229  0.0634  0.0008  0.0000
                                            0.0000  0.5643 -0.0214  0.0000  0.0000
                                            0.0000  0.0000  0.0000  0.0022  0.0013
     5. (1.95550) BD ( 1)Cr   1 - C   6  
                ( 27.31%)   0.5226*Cr   1 s( 16.67%)p 3.00( 49.99%)d 2.00( 33.33%)
                                                  f 0.00(  0.01%)
                                            0.0000  0.0000  0.0030 -0.4082 -0.0005
[...]
    42. CR (   1) O  10                  1.99975   -18.96958  93(v)
    43. CR (   1) O  11                  1.99975   -18.96958  103(v)
    44. CR (   1) O  12                  1.99975   -18.96958  113(v)
    45. CR (   1) O  13                  1.99975   -18.96958  123(v)
    46. LP (   1)Cr   1                  1.24295    -0.16305  202(v),208(v),211(v),214(v)
                                                    70(g)
    47. LP (   2)Cr   1                  1.24295    -0.16305  199(v),205(v),212(v),215(v)
                                                    69(g)
    48. LP (   3)Cr   1                  1.24295    -0.16305  200(v),203(v),206(v),209(v)
                                                    65(g)
    49. LP (   1) O   8                  1.97693    -0.75151  73(v),193(v),137(g)
    50. LP (   1) O   9                  1.97693    -0.75151  83(v),194(v),147(g)
    51. LP (   1) O  10                  1.97693    -0.75151  93(v),195(v),157(g)
    52. LP (   1) O  11                  1.97693    -0.75151  103(v),196(v),167(g)
    53. LP (   1) O  12                  1.97693    -0.75151  113(v),197(v),177(g)
    54. LP (   1) O  13                  1.97693    -0.75151  123(v),198(v),187(g)
    55. RY*(   1)Cr   1                  0.00406     0.48883   
    56. RY*(   2)Cr   1                  0.00157     0.26641   
    57. RY*(   3)Cr   1                  0.00157     0.26641   
    58. RY*(   4)Cr   1                  0.00157     0.26641   
    59. RY*(   5)Cr   1                  0.00069     1.69163   
    60. RY*(   6)Cr   1                  0.00069     1.69163   
    61. RY*(   7)Cr   1                  0.00004     2.45253   
    62. RY*(   8)Cr   1                  0.00004     2.45253   
    63. RY*(   9)Cr   1                  0.00004     2.45253   
    64. RY*(  10)Cr   1                  0.00002     3.62004   
    65. RY*(  11)Cr   1                  0.00001     1.27723   
    66. RY*(  12)Cr   1                  0.00001     2.23429   
    67. RY*(  13)Cr   1                  0.00001     2.23429   
    68. RY*(  14)Cr   1                  0.00001     2.23429   
    69. RY*(  15)Cr   1                  0.00001     1.27723   
    70. RY*(  16)Cr   1                  0.00001     1.27723   
    71. RY*(  17)Cr   1                  0.00000    13.90312   
    72. RY*(  18)Cr   1                  0.00000     2.15003   
    73. RY*(   1) C   2                  0.01972     0.66226   
    74. RY*(   2) C   2                  0.00625     1.17570   
    75. RY*(   3) C   2                  0.00625     1.17570   
    76. RY*(   4) C   2                  0.00105     1.61408   
    77. RY*(   5) C   2                  0.00008     1.83201   
    78. RY*(   6) C   2                  0.00008     1.83201   
    79. RY*(   7) C   2                  0.00008     3.54271   
    80. RY*(   8) C   2                  0.00006     1.69176   
    81. RY*(   9) C   2                  0.00005     1.77548   
    82. RY*(  10) C   2                  0.00001     3.46243   
    83. RY*(   1) C   3                  0.01972     0.66226   
    84. RY*(   2) C   3                  0.00625     1.17570   
    85. RY*(   3) C   3                  0.00625     1.17570   
    86. RY*(   4) C   3                  0.00105     1.61408   
    87. RY*(   5) C   3                  0.00008     1.83201   
    88. RY*(   6) C   3                  0.00008     1.83201   
    89. RY*(   7) C   3                  0.00008     3.54271   
    90. RY*(   8) C   3                  0.00006     1.69176   
    91. RY*(   9) C   3                  0.00005     1.77548   
    92. RY*(  10) C   3                  0.00001     3.46243   
    93. RY*(   1) C   4                  0.01972     0.66226   
    94. RY*(   2) C   4                  0.00625     1.17570   
    95. RY*(   3) C   4                  0.00625     1.17570   
    96. RY*(   4) C   4                  0.00105     1.61408   
    97. RY*(   5) C   4                  0.00008     1.83201   
    98. RY*(   6) C   4                  0.00008     1.83201   
    99. RY*(   7) C   4                  0.00008     3.54271   
   100. RY*(   8) C   4                  0.00006     1.69176   
   101. RY*(   9) C   4                  0.00005     1.77548   
   102. RY*(  10) C   4                  0.00001     3.46243   
   103. RY*(   1) C   5                  0.01972     0.66226   
   104. RY*(   2) C   5                  0.00625     1.17570   
   105. RY*(   3) C   5                  0.00625     1.17570   
   106. RY*(   4) C   5                  0.00105     1.61408   
   107. RY*(   5) C   5                  0.00008     1.83201   
   108. RY*(   6) C   5                  0.00008     1.83201   
   109. RY*(   7) C   5                  0.00008     3.54271   
   110. RY*(   8) C   5                  0.00006     1.69176   
   111. RY*(   9) C   5                  0.00005     1.77548   
   112. RY*(  10) C   5                  0.00001     3.46243   
   113. RY*(   1) C   6                  0.01972     0.66226   
   114. RY*(   2) C   6                  0.00625     1.17570   
   115. RY*(   3) C   6                  0.00625     1.17570   
   116. RY*(   4) C   6                  0.00105     1.61408   
   117. RY*(   5) C   6                  0.00008     1.83201   
   118. RY*(   6) C   6                  0.00008     1.83201   
   119. RY*(   7) C   6                  0.00008     3.54271   
   120. RY*(   8) C   6                  0.00006     1.69176   
   121. RY*(   9) C   6                  0.00005     1.77548   
   122. RY*(  10) C   6                  0.00001     3.46243   
   123. RY*(   1) C   7                  0.01972     0.66226   
   124. RY*(   2) C   7                  0.00625     1.17570   
   125. RY*(   3) C   7                  0.00625     1.17570   
   126. RY*(   4) C   7                  0.00105     1.61408   
   127. RY*(   5) C   7                  0.00008     1.83201   
   128. RY*(   6) C   7                  0.00008     1.83201   
   129. RY*(   7) C   7                  0.00008     3.54271   
   130. RY*(   8) C   7                  0.00006     1.69176   
   131. RY*(   9) C   7                  0.00005     1.77548   
   132. RY*(  10) C   7                  0.00001     3.46243   
   133. RY*(   1) O   8                  0.00153     2.26596   
   134. RY*(   2) O   8                  0.00124     0.98558   
   135. RY*(   3) O   8                  0.00124     0.98558   
   136. RY*(   4) O   8                  0.00010     1.38881   
   137. RY*(   5) O   8                  0.00003     2.74472   
   138. RY*(   6) O   8                  0.00000     1.70602   
   139. RY*(   7) O   8                  0.00000     1.83201   
   140. RY*(   8) O   8                  0.00000     1.83201   
   141. RY*(   9) O   8                  0.00000     1.70656   
   142. RY*(  10) O   8                  0.00001     2.76339   
   143. RY*(   1) O   9                  0.00153     2.26596   
   144. RY*(   2) O   9                  0.00124     0.98558   
   145. RY*(   3) O   9                  0.00124     0.98558   
   146. RY*(   4) O   9                  0.00010     1.38881   
   147. RY*(   5) O   9                  0.00003     2.74472   
   148. RY*(   6) O   9                  0.00000     1.83201   
   149. RY*(   7) O   9                  0.00000     1.70602   
   150. RY*(   8) O   9                  0.00000     1.83201   
   151. RY*(   9) O   9                  0.00001     2.59001   
   152. RY*(  10) O   9                  0.00000     1.87993   
   153. RY*(   1) O  10                  0.00153     2.26596   
   154. RY*(   2) O  10                  0.00124     0.98558   
   155. RY*(   3) O  10                  0.00124     0.98558   
   156. RY*(   4) O  10                  0.00010     1.38881   
   157. RY*(   5) O  10                  0.00003     2.74472   
   158. RY*(   6) O  10                  0.00000     1.70602   
   159. RY*(   7) O  10                  0.00000     1.83201   
   160. RY*(   8) O  10                  0.00000     1.83201   
   161. RY*(   9) O  10                  0.00000     1.70656   
   162. RY*(  10) O  10                  0.00001     2.76339   
   163. RY*(   1) O  11                  0.00153     2.26596   
   164. RY*(   2) O  11                  0.00124     0.98558   
   165. RY*(   3) O  11                  0.00124     0.98558   
   166. RY*(   4) O  11                  0.00010     1.38881   
   167. RY*(   5) O  11                  0.00003     2.74472   
   168. RY*(   6) O  11                  0.00000     1.83201   
   169. RY*(   7) O  11                  0.00000     1.70602   
   170. RY*(   8) O  11                  0.00000     1.83201   
   171. RY*(   9) O  11                  0.00001     2.59001   
   172. RY*(  10) O  11                  0.00000     1.87993   
   173. RY*(   1) O  12                  0.00153     2.26596   
   174. RY*(   2) O  12                  0.00124     0.98558   
   175. RY*(   3) O  12                  0.00124     0.98558   
   176. RY*(   4) O  12                  0.00010     1.38881   
   177. RY*(   5) O  12                  0.00003     2.74472   
   178. RY*(   6) O  12                  0.00000     1.83201   
   179. RY*(   7) O  12                  0.00000     1.83201   
   180. RY*(   8) O  12                  0.00000     1.70602   
   181. RY*(   9) O  12                  0.00001     2.59001   
   182. RY*(  10) O  12                  0.00000     1.87993   
   183. RY*(   1) O  13                  0.00153     2.26596   
   184. RY*(   2) O  13                  0.00124     0.98558   
   185. RY*(   3) O  13                  0.00124     0.98558   
   186. RY*(   4) O  13                  0.00010     1.38881   
   187. RY*(   5) O  13                  0.00003     2.74472   
   188. RY*(   6) O  13                  0.00000     1.83201   
   189. RY*(   7) O  13                  0.00000     1.83201   
   190. RY*(   8) O  13                  0.00000     1.70602   
   191. RY*(   9) O  13                  0.00001     2.59001   
   192. RY*(  10) O  13                  0.00000     1.87993   
   193. BD*(   1)Cr   1 - C   2          0.01878     0.38566   
   194. BD*(   1)Cr   1 - C   3          0.01878     0.38566   
   195. BD*(   1)Cr   1 - C   4          0.01878     0.38566   
   196. BD*(   1)Cr   1 - C   5          0.01878     0.38566   
   197. BD*(   1)Cr   1 - C   6          0.01878     0.38566   
   198. BD*(   1)Cr   1 - C   7          0.01878     0.38566   
   199. BD*(   1) C   2 - O   8          0.19849    -0.00423  205(r),208(r),202(r),212(r)
                                                    215(r),47(v),75(g),134(g)
                                                    197(v),198(v),139(g),77(g)
   200. BD*(   2) C   2 - O   8          0.19849    -0.00423  206(r),209(r),203(r),211(r)
                                                    214(r),48(v),74(g),135(g)
                                                    194(v),196(v),140(g),78(g)
   201. BD*(   3) C   2 - O   8          0.00892     0.68937   
   202. BD*(   1) C   3 - O   9          0.19849    -0.00423  208(r),205(r),199(r),211(r)
                                                    214(r),46(v),84(g),144(g)
                                                    197(v),198(v),148(g),87(g)
   203. BD*(   2) C   3 - O   9          0.19849    -0.00423  200(r),206(r),209(r),212(r)
                                                    215(r),48(v),85(g),145(g)
                                                    193(v),195(v),150(g),88(g)
   204. BD*(   3) C   3 - O   9          0.00892     0.68937   
   205. BD*(   1) C   4 - O  10          0.19849    -0.00423  199(r),208(r),202(r),212(r)
                                                    215(r),47(v),95(g),154(g)
                                                    197(v),198(v),159(g),97(g)
   206. BD*(   2) C   4 - O  10          0.19849    -0.00423  200(r),209(r),203(r),211(r)
                                                    214(r),48(v),94(g),155(g)
                                                    194(v),196(v),160(g),98(g)
   207. BD*(   3) C   4 - O  10          0.00892     0.68937   
   208. BD*(   1) C   5 - O  11          0.19849    -0.00423  202(r),205(r),199(r),211(r)
                                                    214(r),46(v),104(g),164(g)
                                                    197(v),198(v),168(g),107(g)
   209. BD*(   2) C   5 - O  11          0.19849    -0.00423  200(r),206(r),203(r),212(r)
                                                    215(r),48(v),105(g),165(g)
                                                    193(v),195(v),170(g),108(g)
   210. BD*(   3) C   5 - O  11          0.00892     0.68937   
   211. BD*(   1) C   6 - O  12          0.19849    -0.00423  214(r),202(r),208(r),200(r)
                                                    206(r),46(v),114(g),174(g)
                                                    194(v),196(v),178(g),117(g)
   212. BD*(   2) C   6 - O  12          0.19849    -0.00423  215(r),205(r),199(r),203(r)
                                                    209(r),47(v),115(g),175(g)
                                                    193(v),195(v),179(g),118(g)
   213. BD*(   3) C   6 - O  12          0.00892     0.68937   
   214. BD*(   1) C   7 - O  13          0.19849    -0.00423  211(r),202(r),208(r),200(r)
                                                    206(r),46(v),124(g),184(g)
                                                    194(v),196(v),188(g),127(g)
   215. BD*(   2) C   7 - O  13          0.19849    -0.00423  212(r),205(r),199(r),203(r)
                                                    209(r),47(v),125(g),185(g)
                                                    193(v),195(v),189(g),128(g)
   216. BD*(   3) C   7 - O  13          0.00892     0.68937   
       -------------------------------
              Total Lewis  105.21475  ( 97.4211%)
        Valence non-Lewis    2.54808  (  2.3593%)
        Rydberg non-Lewis    0.23718  (  0.2196%)
       -------------------------------
            Total unit  1  108.00000  (100.0000%)
           Charge unit  1    0.00000
 Sorting of NBOs:                   25   26   28   30   32   44   45   42   40   41
 Sorting of NBOs:                   43   34   37   35   36   39   38   27   33   31
 Sorting of NBOs:                   29   21   24   18   12    9   15   53   54   49
 Sorting of NBOs:                   51   52   50    3    4    6    5    2    1   22
 Sorting of NBOs:                   23   19   20   11   14    8   17   10   16   13
 Sorting of NBOs:                    7   48   47   46  215  214  212  211  203  209
 Sorting of NBOs:                  200  206  202  208  205  199   56   58   57  194
 Sorting of NBOs:                  193  196  195  198  197   55  113  123   83   73
 Sorting of NBOs:                  103   93  216  213  204  210  201  207  184  174
 Sorting of NBOs:                  185  175  154  144  134  164  145  165  155  135
 Sorting of NBOs:                  115  114  125  124   75   95   84  104   94   85
 Sorting of NBOs:                   74  105   65   69   70  136  186  146  156  176
 Sorting of NBOs:                  166  106  116  126   86   96   76   59   60  130
 Sorting of NBOs:                  120  100   80   90  110  190  180  169  149  158
 Sorting of NBOs:                  138  161  141  131  121   91  111   81  101  179
 Sorting of NBOs:                  178  188  189  168  139  148  159  140  170  150
 Sorting of NBOs:                  160  127  117  128  118  107   87   97   77   78
 Sorting of NBOs:                  108   98   88  192  172  152  182   72   67   68
 Sorting of NBOs:                   66  173  183  133  153  143  163   63   61   62
 Sorting of NBOs:                  191  171  151  181  157  137  177  167  187  147
 Sorting of NBOs:                  142  162  102  112  122   92   82  132  129   79
 Sorting of NBOs:                  119   89   99  109   64   71
 Reordering of NBOs for storage:    25   26   28   30   32   44   45   42   40   41
 Reordering of NBOs for storage:    43   34   37   35   36   39   38   27   33   31
 Reordering of NBOs for storage:    29   21   24   18   12    9   15   53   54   49
 Reordering of NBOs for storage:    51   52   50    3    4    6    5    2    1   22
 Reordering of NBOs for storage:    23   19   20   11   14    8   17   10   16   13
 Reordering of NBOs for storage:     7   48   47   46  215  214  212  211  203  209
 Reordering of NBOs for storage:   200  206  202  208  205  199  194  193  196  195
 Reordering of NBOs for storage:   198  197  216  213  204  210  201  207   56   58
 Reordering of NBOs for storage:    57   55  113  123   83   73  103   93  184  174
 Reordering of NBOs for storage:   185  175  154  144  134  164  145  165  155  135
 Reordering of NBOs for storage:   115  114  125  124   75   95   84  104   94   85
 Reordering of NBOs for storage:    74  105   65   69   70  136  186  146  156  176
 Reordering of NBOs for storage:   166  106  116  126   86   96   76   59   60  130
 Reordering of NBOs for storage:   120  100   80   90  110  190  180  169  149  158
 Reordering of NBOs for storage:   138  161  141  131  121   91  111   81  101  179
 Reordering of NBOs for storage:   178  188  189  168  139  148  159  140  170  150
 Reordering of NBOs for storage:   160  127  117  128  118  107   87   97   77   78
 Reordering of NBOs for storage:   108   98   88  192  172  152  182   72   67   68
 Reordering of NBOs for storage:    66  173  183  133  153  143  163   63   61   62
 Reordering of NBOs for storage:   191  171  151  181  157  137  177  167  187  147
 Reordering of NBOs for storage:   142  162  102  112  122   92   82  132  129   79
 Reordering of NBOs for storage:   119   89   99  109   64   71
 Labels of output orbitals:  CR  CR  CR  CR  CR  CR  CR  CR  CR  CR  CR  CR  CR  CR  CR  CR  CR  CR  CR  CR  
 Labels of output orbitals:  CR  BD  BD  BD  BD  BD  BD  LP  LP  LP  LP  LP  LP  BD  BD  BD  BD  BD  BD  BD  
 Labels of output orbitals:  BD  BD  BD  BD  BD  BD  BD  BD  BD  BD  BD  LP  LP  LP  BD* BD* BD* BD* BD* BD* 
 Labels of output orbitals:  BD* BD* BD* BD* BD* BD* BD* BD* BD* BD* BD* BD* BD* BD* BD* BD* BD* BD* RY* RY* 
 Labels of output orbitals:  RY* RY* RY* RY* RY* RY* RY* RY* RY* RY* RY* RY* RY* RY* RY* RY* RY* RY* RY* RY* 
 Labels of output orbitals:  RY* RY* RY* RY* RY* RY* RY* RY* RY* RY* RY* RY* RY* RY* RY* RY* RY* RY* RY* RY* 
 Labels of output orbitals:  RY* RY* RY* RY* RY* RY* RY* RY* RY* RY* RY* RY* RY* RY* RY* RY* RY* RY* RY* RY* 
 Labels of output orbitals:  RY* RY* RY* RY* RY* RY* RY* RY* RY* RY* RY* RY* RY* RY* RY* RY* RY* RY* RY* RY* 
 Labels of output orbitals:  RY* RY* RY* RY* RY* RY* RY* RY* RY* RY* RY* RY* RY* RY* RY* RY* RY* RY* RY* RY* 
 Labels of output orbitals:  RY* RY* RY* RY* RY* RY* RY* RY* RY* RY* RY* RY* RY* RY* RY* RY* RY* RY* RY* RY* 
 Labels of output orbitals:  RY* RY* RY* RY* RY* RY* RY* RY* RY* RY* RY* RY* RY* RY* RY* RY* 
 Leave Link  607 at Wed Oct  5 17:52:21 2016, MaxMem=  3221225472 cpu:        11.4
 (Enter /home/Andriy.Zhugayevych/local/gaussian/g09/l9999.exe)
 1\1\GINC-NODE10\SP\RB3LYP\6-31G(d)\C6Cr1O6\VICTOR.VYSOTSKIY\05-Oct-201
 6\0\\#P B3LYP 6-31G* gfprint pop(NBO,SaveNBOs) Density\\\0,1\Cr,0,0.,0
 .,0.\C,0,1.915427,0.,0.\C,0,0.,-1.915427,0.\C,0,-1.915427,0.,0.\C,0,0.
 ,1.915427,0.\C,0,0.,0.,1.915427\C,0,0.,0.,-1.915427\O,0,3.065051,0.,0.
 \O,0,0.,-3.065051,0.\O,0,-3.065051,0.,0.\O,0,0.,3.065051,0.\O,0,0.,0.,
 3.065051\O,0,0.,0.,-3.065051\\Version=ES64L-G09RevD.01\State=1-A1G\HF=
 -1724.4827424\RMSD=4.267e-10\Dipole=0.,0.,0.\Quadrupole=0.,0.,0.,0.,0.
 ,0.\PG=OH [O(Cr1),3C4(O1C1.C1O1)]\\@


 ONE OF THE BENEFITS OF A COLLEGE EDUCATION
 IS TO SHOW THE BOY ITS LITTLE AVAIL 
                                    EMERSON IN 'CULTURE'
 Job cpu time:       0 days  0 hours  0 minutes 54.1 seconds.
 File lengths (MBytes):  RWF=    132 Int=      0 D2E=      0 Chk=      3 Scr=      1
 Normal termination of Gaussian 09 at Wed Oct  5 17:52:21 2016.
