 Entering Gaussian System

 Standard orientation:



 -------------------------------------------------------
     1   8    0     0.000000     0.000000     1.154745
     2   6    0     0.000000     1.089502     0.346428
     3   6    0     0.000000    -1.089502     0.346428
     4   6    0     0.000000     0.716333    -0.955312
     5   6    0     0.000000    -0.716333    -0.955312
     6   1    0     0.000000     2.044876     0.847423
     7   1    0     0.000000    -2.044876     0.847423
     8   1    0     0.000000     1.372873    -1.813097
     9   1    0     0.000000    -1.372873    -1.813097
 -------------------------------------------------------

 AO basis set (Overlap normalization):
 Atom  O1     Shell     1 S    6
   5.4846716600e+03   1.8310744300e-03
   8.2523494600e+02   1.3950172200e-02
   1.8804695800e+02   6.8445078100e-02
   5.2964500000e+01   2.3271433600e-01
   1.6897570400e+01   4.7019289800e-01
   5.7996353400e+00   3.5852085300e-01
 Atom  O1     Shell     2 SP   3
   1.5539616250e+01  -1.1077754950e-01   7.0874268230e-02
   3.5999335860e+00  -1.4802626270e-01   3.3975283910e-01
   1.0137617500e+00   1.1307670150e+00   7.2715857730e-01
 Atom  O1     Shell     3 SP   1
   2.7000582260e-01   1.0000000000e+00   1.0000000000e+00
 Atom  O1     Shell     4 D    1
   8.0000000000e-01   1.0000000000e+00
 Atom  C2     Shell     5 S    6
   3.0475248800e+03   1.8347371320e-03
   4.5736951800e+02   1.4037322810e-02
   1.0394868500e+02   6.8842622260e-02
   2.9210155300e+01   2.3218444320e-01
   9.2866629600e+00   4.6794134840e-01
   3.1639269600e+00   3.6231198530e-01
 Atom  C2     Shell     6 SP   3
   7.8682723500e+00  -1.1933241980e-01   6.8999066590e-02
   1.8812885400e+00  -1.6085415170e-01   3.1642396100e-01
   5.4424925800e-01   1.1434564380e+00   7.4430829090e-01
 Atom  C2     Shell     7 SP   1
   1.6871447820e-01   1.0000000000e+00   1.0000000000e+00
 Atom  C2     Shell     8 D    1
   8.0000000000e-01   1.0000000000e+00
 Atom  C3     Shell     9 S    6
   3.0475248800e+03   1.8347371320e-03
   4.5736951800e+02   1.4037322810e-02
   1.0394868500e+02   6.8842622260e-02
   2.9210155300e+01   2.3218444320e-01
   9.2866629600e+00   4.6794134840e-01
   3.1639269600e+00   3.6231198530e-01
 Atom  C3     Shell    10 SP   3
   7.8682723500e+00  -1.1933241980e-01   6.8999066590e-02
   1.8812885400e+00  -1.6085415170e-01   3.1642396100e-01
   5.4424925800e-01   1.1434564380e+00   7.4430829090e-01
 Atom  C3     Shell    11 SP   1
   1.6871447820e-01   1.0000000000e+00   1.0000000000e+00
 Atom  C3     Shell    12 D    1
   8.0000000000e-01   1.0000000000e+00
 Atom  C4     Shell    13 S    6
   3.0475248800e+03   1.8347371320e-03
   4.5736951800e+02   1.4037322810e-02
   1.0394868500e+02   6.8842622260e-02
   2.9210155300e+01   2.3218444320e-01
   9.2866629600e+00   4.6794134840e-01
   3.1639269600e+00   3.6231198530e-01
 Atom  C4     Shell    14 SP   3
   7.8682723500e+00  -1.1933241980e-01   6.8999066590e-02
   1.8812885400e+00  -1.6085415170e-01   3.1642396100e-01
   5.4424925800e-01   1.1434564380e+00   7.4430829090e-01
 Atom  C4     Shell    15 SP   1
   1.6871447820e-01   1.0000000000e+00   1.0000000000e+00
 Atom  C4     Shell    16 D    1
   8.0000000000e-01   1.0000000000e+00
 Atom  C5     Shell    17 S    6
   3.0475248800e+03   1.8347371320e-03
   4.5736951800e+02   1.4037322810e-02
   1.0394868500e+02   6.8842622260e-02
   2.9210155300e+01   2.3218444320e-01
   9.2866629600e+00   4.6794134840e-01
   3.1639269600e+00   3.6231198530e-01
 Atom  C5     Shell    18 SP   3
   7.8682723500e+00  -1.1933241980e-01   6.8999066590e-02
   1.8812885400e+00  -1.6085415170e-01   3.1642396100e-01
   5.4424925800e-01   1.1434564380e+00   7.4430829090e-01
 Atom  C5     Shell    19 SP   1
   1.6871447820e-01   1.0000000000e+00   1.0000000000e+00
 Atom  C5     Shell    20 D    1
   8.0000000000e-01   1.0000000000e+00
 Atom  H6     Shell    21 S    3
   1.8731136960e+01   3.3494604340e-02
   2.8253943650e+00   2.3472695350e-01
   6.4012169230e-01   8.1375732610e-01
 Atom  H6     Shell    22 S    1
   1.6127775880e-01   1.0000000000e+00
 Atom  H7     Shell    23 S    3
   1.8731136960e+01   3.3494604340e-02
   2.8253943650e+00   2.3472695350e-01
   6.4012169230e-01   8.1375732610e-01
 Atom  H7     Shell    24 S    1
   1.6127775880e-01   1.0000000000e+00
 Atom  H8     Shell    25 S    3
   1.8731136960e+01   3.3494604340e-02
   2.8253943650e+00   2.3472695350e-01
   6.4012169230e-01   8.1375732610e-01
 Atom  H8     Shell    26 S    1
   1.6127775880e-01   1.0000000000e+00
 Atom  H9     Shell    27 S    3
   1.8731136960e+01   3.3494604340e-02
   2.8253943650e+00   2.3472695350e-01
   6.4012169230e-01   8.1375732610e-01
 Atom  H9     Shell    28 S    1
   1.6127775880e-01   1.0000000000e+00

 Molecular Orbital Coefficients:
                           1         2         3         4         5
                           O         O         O         O         O    
     Eigenvalues --  -518.78833-276.94951-276.94951-275.14036-275.14036
    1 O1      .S        1.01050   0.00208   0.00208  -0.00038  -0.00038
    2 O1      .S       -0.02649  -0.00186  -0.00186   0.00015   0.00015
    3 O1      .X       -0.00000   0.00000   0.00000   0.00000   0.00000
    4 O1      .Y        0.00000   0.01213  -0.01213   0.00033  -0.00033
    5 O1      .Z       -0.00077   0.00859   0.00859  -0.00514  -0.00514
    6 O1      .S       -0.02905  -0.00792  -0.00792   0.00123   0.00123
    7 O1      .X       -0.00000   0.00000   0.00000  -0.00000   0.00000
    8 O1      .Y       -0.00000   0.01579  -0.01579  -0.00046   0.00046
    9 O1      .Z       -0.00739   0.01093   0.01093  -0.00743  -0.00743
   10 O1      .XX      -0.00955   0.00059   0.00059  -0.00013  -0.00013
   11 O1      .YY      -0.00934   0.00018   0.00018  -0.00009  -0.00009
   12 O1      .ZZ      -0.00941   0.00030   0.00030  -0.00008  -0.00008
   13 O1      .XY      -0.00000  -0.00000  -0.00000  -0.00000   0.00000
   14 O1      .XZ       0.00000  -0.00000   0.00000  -0.00000  -0.00000
   15 O1      .YZ       0.00000  -0.00021   0.00021  -0.00003   0.00003
   16 C2      .S        0.00146  -0.00017   1.00894  -0.00038   0.00394
   17 C2      .S        0.00115   0.00161  -0.00109  -0.00032   0.00083
   18 C2      .X        0.00000  -0.00000  -0.00000  -0.00000   0.00000
   19 C2      .Y        0.00536  -0.00080  -0.00285  -0.00519   0.00925
   20 C2      .Z       -0.00303  -0.00123  -0.00689  -0.00135   0.02081
   21 C2      .S       -0.00884  -0.01290   0.01905   0.01227  -0.04901
   22 C2      .X        0.00000  -0.00000  -0.00000  -0.00000  -0.00000
   23 C2      .Y        0.01446   0.00733  -0.01426  -0.01590   0.02805
   24 C2      .Z       -0.00322   0.00051  -0.02202  -0.00215   0.04533
   25 C2      .XX      -0.00041  -0.00085  -0.00571   0.00086  -0.00329
   26 C2      .YY      -0.00071  -0.00071  -0.00565   0.00089  -0.00327
   27 C2      .ZZ      -0.00060  -0.00072  -0.00561   0.00085  -0.00364
   28 C2      .XY       0.00000   0.00000   0.00000   0.00000  -0.00000
   29 C2      .XZ       0.00000  -0.00000   0.00000   0.00000  -0.00000
   30 C2      .YZ       0.00021  -0.00000  -0.00004   0.00002  -0.00014
   31 C3      .S        0.00146   1.00894  -0.00017   0.00394  -0.00038
   32 C3      .S        0.00115  -0.00109   0.00161   0.00083  -0.00032
   33 C3      .X        0.00000  -0.00000   0.00000   0.00000   0.00000
   34 C3      .Y       -0.00536   0.00285   0.00080  -0.00925   0.00519
   35 C3      .Z       -0.00303  -0.00689  -0.00123   0.02081  -0.00135
   36 C3      .S       -0.00884   0.01905  -0.01290  -0.04901   0.01227
   37 C3      .X        0.00000  -0.00000   0.00000   0.00000  -0.00000
   38 C3      .Y       -0.01446   0.01426  -0.00733  -0.02805   0.01590
   39 C3      .Z       -0.00322  -0.02202   0.00051   0.04533  -0.00215
   40 C3      .XX      -0.00041  -0.00571  -0.00085  -0.00329   0.00086
   41 C3      .YY      -0.00071  -0.00565  -0.00071  -0.00327   0.00089
   42 C3      .ZZ      -0.00060  -0.00561  -0.00072  -0.00364   0.00085
   43 C3      .XY      -0.00000  -0.00000   0.00000   0.00000   0.00000
   44 C3      .XZ       0.00000   0.00000  -0.00000  -0.00000  -0.00000
   45 C3      .YZ      -0.00021   0.00004   0.00000   0.00014  -0.00002
   46 C4      .S       -0.00035  -0.00028   0.00492   0.00342   1.00933
   47 C4      .S       -0.00067   0.00057  -0.00146   0.00189  -0.00456
   48 C4      .X        0.00000   0.00000  -0.00000  -0.00000   0.00000
   49 C4      .Y       -0.00116  -0.00189  -0.00401   0.01727  -0.00247
   50 C4      .Z        0.00153   0.00594  -0.02452  -0.00269   0.00700
   51 C4      .S        0.00260   0.01112  -0.05366  -0.04568   0.03873
   52 C4      .X        0.00000   0.00000  -0.00000  -0.00000   0.00000
   53 C4      .Y       -0.00548  -0.00479  -0.00527   0.04604  -0.02039
   54 C4      .Z        0.00547   0.01575  -0.05632  -0.01539   0.03189
   55 C4      .XX      -0.00002   0.00061  -0.00240  -0.00167  -0.00657
   56 C4      .YY       0.00002   0.00059  -0.00233  -0.00204  -0.00652
   57 C4      .ZZ       0.00006   0.00055  -0.00266  -0.00163  -0.00645
   58 C4      .XY       0.00000  -0.00000   0.00000   0.00000  -0.00000
   59 C4      .XZ       0.00000   0.00000  -0.00000  -0.00000   0.00000
   60 C4      .YZ      -0.00001  -0.00002  -0.00012   0.00000   0.00003
   61 C5      .S       -0.00035   0.00492  -0.00028   1.00933   0.00342
   62 C5      .S       -0.00067  -0.00146   0.00057  -0.00456   0.00189
   63 C5      .X        0.00000  -0.00000   0.00000   0.00000   0.00000
   64 C5      .Y        0.00116   0.00401   0.00189   0.00247  -0.01727
   65 C5      .Z        0.00153  -0.02452   0.00594   0.00700  -0.00269
   66 C5      .S        0.00260  -0.05366   0.01112   0.03873  -0.04568
   67 C5      .X        0.00000  -0.00000   0.00000   0.00000  -0.00000
   68 C5      .Y        0.00548   0.00527   0.00479   0.02039  -0.04604
   69 C5      .Z        0.00547  -0.05632   0.01575   0.03189  -0.01539
   70 C5      .XX      -0.00002  -0.00240   0.00061  -0.00657  -0.00167
   71 C5      .YY       0.00002  -0.00233   0.00059  -0.00652  -0.00204
   72 C5      .ZZ       0.00006  -0.00266   0.00055  -0.00645  -0.00163
   73 C5      .XY       0.00000   0.00000   0.00000   0.00000   0.00000
   74 C5      .XZ       0.00000  -0.00000   0.00000   0.00000   0.00000
   75 C5      .YZ       0.00001   0.00012   0.00002  -0.00003  -0.00000
   76 H6      .S       -0.00080  -0.00041  -0.00789   0.00163  -0.00540
   77 H6      .S       -0.00301  -0.00253  -0.01217   0.00385  -0.01217
   78 H7      .S       -0.00080  -0.00789  -0.00041  -0.00540   0.00163
   79 H7      .S       -0.00301  -0.01217  -0.00253  -0.01217   0.00385
   80 H8      .S        0.00100   0.00162  -0.00431  -0.00381  -0.00516
   81 H8      .S        0.00246   0.00317  -0.00971  -0.00986  -0.00635
   82 H9      .S        0.00100  -0.00431   0.00162  -0.00516  -0.00381
   83 H9      .S        0.00246  -0.00971   0.00317  -0.00635  -0.00986
                           6         7         8         9        10
                           O         O         O         O         O    
     Eigenvalues --   -26.18323 -26.18323 -21.44988 -21.44988 -19.38657
    1 O1      .S       -0.05841  -0.05841  -0.00562  -0.00562   0.00384
    2 O1      .S        0.27511   0.27511   0.02129   0.02129   0.00709
    3 O1      .X       -0.00000  -0.00000  -0.00000  -0.00000   0.00000
    4 O1      .Y       -0.37097   0.37097   0.01772  -0.01772  -0.00000
    5 O1      .Z       -0.22696  -0.22696  -0.04223  -0.04223  -0.01010
    6 O1      .S        0.25292   0.25292  -0.00190  -0.00190  -0.08590
    7 O1      .X        0.00000   0.00000   0.00000   0.00000   0.00000
    8 O1      .Y       -0.17643   0.17643   0.04951  -0.04951   0.00000
    9 O1      .Z       -0.12254  -0.12254  -0.00365  -0.00365   0.00856
   10 O1      .XX      -0.01008  -0.01008   0.00309   0.00309   0.01076
   11 O1      .YY      -0.00243  -0.00243   0.00008   0.00008   0.00996
   12 O1      .ZZ       0.01099   0.01099  -0.00001  -0.00001   0.00934
   13 O1      .XY      -0.00000   0.00000   0.00000  -0.00000  -0.00000
   14 O1      .XZ      -0.00000   0.00000   0.00000   0.00000  -0.00000
   15 O1      .YZ       0.01861  -0.01861   0.00371  -0.00371   0.00000
   16 C2      .S        0.01003  -0.02897   0.05913  -0.00353   0.01237
   17 C2      .S       -0.03770   0.17878  -0.28962   0.02155  -0.02443
   18 C2      .X        0.00000  -0.00000  -0.00000   0.00000   0.00000
   19 C2      .Y        0.07149  -0.25263   0.05615  -0.03394   0.06909
   20 C2      .Z        0.00610   0.20275   0.33690  -0.00916   0.05020
   21 C2      .S        0.06444   0.03512  -0.24312   0.10967  -0.03064
   22 C2      .X       -0.00000   0.00000   0.00000  -0.00000   0.00000
   23 C2      .Y       -0.04048   0.01772  -0.02034  -0.00641  -0.03574
   24 C2      .Z       -0.14574   0.02845   0.06034  -0.01851   0.05478
   25 C2      .XX       0.00130  -0.01679   0.00964   0.00744  -0.00230
   26 C2      .YY       0.00439   0.01377   0.01047   0.00924  -0.00250
   27 C2      .ZZ       0.00345  -0.00031  -0.00789   0.00834   0.00087
   28 C2      .XY      -0.00000   0.00000   0.00000  -0.00000   0.00000
   29 C2      .XZ       0.00000  -0.00000  -0.00000   0.00000   0.00000
   30 C2      .YZ      -0.00412  -0.03045  -0.01152   0.00049   0.00181
   31 C3      .S       -0.02897   0.01003  -0.00353   0.05913   0.01237
   32 C3      .S        0.17878  -0.03770   0.02155  -0.28962  -0.02443
   33 C3      .X        0.00000  -0.00000  -0.00000   0.00000   0.00000
   34 C3      .Y        0.25263  -0.07149   0.03394  -0.05615  -0.06909
   35 C3      .Z        0.20275   0.00610  -0.00916   0.33690   0.05020
   36 C3      .S        0.03512   0.06444   0.10967  -0.24312  -0.03064
   37 C3      .X        0.00000   0.00000  -0.00000  -0.00000  -0.00000
   38 C3      .Y       -0.01772   0.04048   0.00641   0.02034   0.03574
   39 C3      .Z        0.02845  -0.14574  -0.01851   0.06034   0.05478
   40 C3      .XX      -0.01679   0.00130   0.00744   0.00964  -0.00230
   41 C3      .YY       0.01377   0.00439   0.00924   0.01047  -0.00250
   42 C3      .ZZ      -0.00031   0.00345   0.00834  -0.00789   0.00087
   43 C3      .XY       0.00000  -0.00000  -0.00000  -0.00000   0.00000
   44 C3      .XZ      -0.00000  -0.00000  -0.00000   0.00000   0.00000
   45 C3      .YZ       0.03045   0.00412  -0.00049   0.01152  -0.00181
   46 C4      .S        0.00425   0.00833   0.04825  -0.01001  -0.04645
   47 C4      .S        0.01414  -0.01939  -0.26730   0.04464   0.25684
   48 C4      .X        0.00000  -0.00000  -0.00000   0.00000  -0.00000
   49 C4      .Y        0.00172   0.02844  -0.13068  -0.06174  -0.35322
   50 C4      .Z       -0.01305  -0.04652  -0.31491   0.05214  -0.04378
   51 C4      .S       -0.22329   0.04935  -0.15045  -0.05711   0.20128
   52 C4      .X       -0.00000  -0.00000   0.00000  -0.00000   0.00000
   53 C4      .Y        0.04460  -0.09483  -0.07660  -0.02659  -0.07798
   54 C4      .Z       -0.08481  -0.00610  -0.01310  -0.12873  -0.04408
   55 C4      .XX      -0.00490   0.00162   0.01227   0.00158  -0.01009
   56 C4      .YY      -0.00604  -0.00054   0.01140  -0.00237   0.01474
   57 C4      .ZZ      -0.00636   0.00699  -0.01348   0.00187  -0.00840
   58 C4      .XY       0.00000  -0.00000  -0.00000   0.00000  -0.00000
   59 C4      .XZ       0.00000   0.00000  -0.00000   0.00000  -0.00000
   60 C4      .YZ       0.00067  -0.00091  -0.00561   0.00040  -0.00347
   61 C5      .S        0.00833   0.00425  -0.01001   0.04825  -0.04645
   62 C5      .S       -0.01939   0.01414   0.04464  -0.26730   0.25684
   63 C5      .X       -0.00000   0.00000   0.00000   0.00000  -0.00000
   64 C5      .Y       -0.02844  -0.00172   0.06174   0.13068   0.35322
   65 C5      .Z       -0.04652  -0.01305   0.05214  -0.31491  -0.04378
   66 C5      .S        0.04935  -0.22329  -0.05711  -0.15045   0.20128
   67 C5      .X        0.00000  -0.00000   0.00000   0.00000   0.00000
   68 C5      .Y        0.09483  -0.04460   0.02659   0.07660   0.07798
   69 C5      .Z       -0.00610  -0.08481  -0.12873  -0.01310  -0.04408
   70 C5      .XX       0.00162  -0.00490   0.00158   0.01227  -0.01009
   71 C5      .YY      -0.00054  -0.00604  -0.00237   0.01140   0.01474
   72 C5      .ZZ       0.00699  -0.00636   0.00187  -0.01348  -0.00840
   73 C5      .XY      -0.00000   0.00000   0.00000  -0.00000  -0.00000
   74 C5      .XZ      -0.00000   0.00000  -0.00000  -0.00000   0.00000
   75 C5      .YZ       0.00091  -0.00067  -0.00040   0.00561   0.00347
   76 H6      .S        0.00890  -0.02546   0.05413  -0.00266  -0.00757
   77 H6      .S        0.05722  -0.05836   0.09895  -0.01084   0.01918
   78 H7      .S       -0.02546   0.00890  -0.00266   0.05413  -0.00757
   79 H7      .S       -0.05836   0.05722  -0.01084   0.09895   0.01918
   80 H8      .S        0.00008  -0.00294   0.05407  -0.00081  -0.04674
   81 H8      .S       -0.01860   0.02435   0.09513  -0.04442  -0.08229
   82 H9      .S       -0.00294   0.00008  -0.00081   0.05407  -0.04674
   83 H9      .S        0.02435  -0.01860  -0.04442   0.09513  -0.08229
                          11        12        13        14        15
                           O         O         O         O         O    
     Eigenvalues --   -17.11339 -16.94879 -16.94879 -16.37937 -16.37937
    1 O1      .S       -0.08823   0.00800   0.00800   0.00054   0.00054
    2 O1      .S        0.34860  -0.01027  -0.01027   0.00732   0.00732
    3 O1      .X        0.00000  -0.00000   0.00000  -0.00000   0.00000
    4 O1      .Y       -0.00000  -0.05851   0.05851   0.00769  -0.00769
    5 O1      .Z        0.52660  -0.01167  -0.01167   0.01303   0.01303
    6 O1      .S        0.45979  -0.05149  -0.05149  -0.01930  -0.01930
    7 O1      .X        0.00000  -0.00000   0.00000  -0.00000   0.00000
    8 O1      .Y        0.00000  -0.02961   0.02961  -0.00924   0.00924
    9 O1      .Z        0.35702   0.01851   0.01851   0.00983   0.00983
   10 O1      .XX       0.00333   0.00419   0.00419   0.00236   0.00236
   11 O1      .YY       0.01168   0.00899   0.00899   0.00328   0.00328
   12 O1      .ZZ      -0.03771   0.00363   0.00363   0.00240   0.00240
   13 O1      .XY      -0.00000  -0.00000  -0.00000   0.00000  -0.00000
   14 O1      .XZ      -0.00000  -0.00000  -0.00000   0.00000   0.00000
   15 O1      .YZ      -0.00000  -0.00300   0.00300   0.00042  -0.00042
   16 C2      .S        0.01277  -0.05838   0.00055  -0.01119   0.00100
   17 C2      .S       -0.01345   0.24672   0.01004   0.02299   0.00653
   18 C2      .X        0.00000   0.00000  -0.00000   0.00000  -0.00000
   19 C2      .Y        0.02370   0.33666  -0.00822   0.02153   0.01776
   20 C2      .Z       -0.08161   0.15622  -0.00470  -0.07711   0.00108
   21 C2      .S       -0.05808   0.30433  -0.03483   0.12085  -0.07727
   22 C2      .X        0.00000   0.00000   0.00000  -0.00000   0.00000
   23 C2      .Y        0.04262   0.04334   0.03984  -0.07423   0.02376
   24 C2      .Z       -0.05657  -0.01009   0.01787  -0.09659   0.01719
   25 C2      .XX      -0.00519  -0.00606   0.00055   0.00637  -0.00319
   26 C2      .YY       0.00106   0.01407   0.00026   0.00881  -0.00326
   27 C2      .ZZ      -0.00680   0.00038  -0.00060   0.00482  -0.00313
   28 C2      .XY      -0.00000  -0.00000   0.00000  -0.00000   0.00000
   29 C2      .XZ      -0.00000   0.00000  -0.00000  -0.00000   0.00000
   30 C2      .YZ       0.00080   0.02160  -0.00019   0.00174  -0.00033
   31 C3      .S        0.01277   0.00055  -0.05838   0.00100  -0.01119
   32 C3      .S       -0.01345   0.01004   0.24672   0.00653   0.02299
   33 C3      .X       -0.00000  -0.00000   0.00000  -0.00000   0.00000
   34 C3      .Y       -0.02370   0.00822  -0.33666  -0.01776  -0.02153
   35 C3      .Z       -0.08161  -0.00470   0.15622   0.00108  -0.07711
   36 C3      .S       -0.05808  -0.03483   0.30433  -0.07727   0.12085
   37 C3      .X       -0.00000  -0.00000   0.00000  -0.00000   0.00000
   38 C3      .Y       -0.04262  -0.03984  -0.04334  -0.02376   0.07423
   39 C3      .Z       -0.05657   0.01787  -0.01009   0.01719  -0.09659
   40 C3      .XX      -0.00519   0.00055  -0.00606  -0.00319   0.00637
   41 C3      .YY       0.00106   0.00026   0.01407  -0.00326   0.00881
   42 C3      .ZZ      -0.00680  -0.00060   0.00038  -0.00313   0.00482
   43 C3      .XY      -0.00000   0.00000  -0.00000  -0.00000   0.00000
   44 C3      .XZ       0.00000  -0.00000   0.00000   0.00000  -0.00000
   45 C3      .YZ      -0.00080   0.00019  -0.02160   0.00033  -0.00174
   46 C4      .S       -0.00278   0.01304  -0.00083   0.05348  -0.01086
   47 C4      .S       -0.00969  -0.01234  -0.00384  -0.24105   0.01298
   48 C4      .X        0.00000  -0.00000  -0.00000   0.00000  -0.00000
   49 C4      .Y       -0.01740  -0.06419  -0.00401  -0.22230  -0.06150
   50 C4      .Z        0.00808  -0.05459   0.01998   0.28886  -0.04130
   51 C4      .S        0.01311  -0.17391   0.09128  -0.34571   0.13839
   52 C4      .X        0.00000  -0.00000   0.00000   0.00000  -0.00000
   53 C4      .Y       -0.01169   0.03918  -0.02889  -0.01960  -0.10097
   54 C4      .Z        0.01522  -0.13668   0.02003   0.01121   0.07480
   55 C4      .XX      -0.00059  -0.00399   0.00189   0.00655   0.00357
   56 C4      .YY      -0.00010  -0.00389   0.00206  -0.00643   0.00372
   57 C4      .ZZ      -0.00150  -0.00765   0.00204  -0.01268   0.00493
   58 C4      .XY      -0.00000   0.00000   0.00000  -0.00000  -0.00000
   59 C4      .XZ       0.00000  -0.00000   0.00000   0.00000  -0.00000
   60 C4      .YZ       0.00080   0.00275  -0.00052   0.01691  -0.00217
   61 C5      .S       -0.00278  -0.00083   0.01304  -0.01086   0.05348
   62 C5      .S       -0.00969  -0.00384  -0.01234   0.01298  -0.24105
   63 C5      .X       -0.00000  -0.00000   0.00000  -0.00000   0.00000
   64 C5      .Y        0.01740   0.00401   0.06419   0.06150   0.22230
   65 C5      .Z        0.00808   0.01998  -0.05459  -0.04130   0.28886
   66 C5      .S        0.01311   0.09128  -0.17391   0.13839  -0.34571
   67 C5      .X       -0.00000  -0.00000   0.00000  -0.00000   0.00000
   68 C5      .Y        0.01169   0.02889  -0.03918   0.10097   0.01960
   69 C5      .Z        0.01522   0.02003  -0.13668   0.07480   0.01121
   70 C5      .XX      -0.00059   0.00189  -0.00399   0.00357   0.00655
   71 C5      .YY      -0.00010   0.00206  -0.00389   0.00372  -0.00643
   72 C5      .ZZ      -0.00150   0.00204  -0.00765   0.00493  -0.01268
   73 C5      .XY      -0.00000  -0.00000   0.00000   0.00000   0.00000
   74 C5      .XZ      -0.00000  -0.00000  -0.00000  -0.00000   0.00000
   75 C5      .YZ      -0.00080   0.00052  -0.00275   0.00217  -0.01691
   76 H6      .S       -0.00099   0.33148  -0.00417   0.01558   0.00263
   77 H6      .S       -0.00307   0.24862  -0.01908   0.03807   0.00128
   78 H7      .S       -0.00099  -0.00417   0.33148   0.00263   0.01558
   79 H7      .S       -0.00307  -0.01908   0.24862   0.00128   0.03807
   80 H8      .S        0.00095  -0.01365  -0.00288  -0.33098   0.01473
   81 H8      .S       -0.00026  -0.04419  -0.00174  -0.26194   0.04149
   82 H9      .S        0.00095  -0.00288  -0.01365   0.01473  -0.33098
   83 H9      .S       -0.00026  -0.00174  -0.04419   0.04149  -0.26194
                          16        17        18        19        20
                           O         O         O         V         V    
     Eigenvalues --   -10.05271  -8.67809  -8.67809   2.28590   2.28590
    1 O1      .S        0.00000  -0.00000  -0.00000   0.00000  -0.00000
    2 O1      .S       -0.00000   0.00000   0.00000  -0.00000  -0.00000
    3 O1      .X        0.70273  -0.05647  -0.05647  -0.06928  -0.06928
    4 O1      .Y       -0.00000   0.00000   0.00000   0.00000   0.00000
    5 O1      .Z       -0.00000   0.00000  -0.00000  -0.00000   0.00000
    6 O1      .S       -0.00000   0.00000  -0.00000  -0.00000   0.00000
    7 O1      .X        0.49625  -0.04243  -0.04243  -0.05065  -0.05065
    8 O1      .Y       -0.00000   0.00000   0.00000   0.00000  -0.00000
    9 O1      .Z        0.00000  -0.00000  -0.00000  -0.00000  -0.00000
   10 O1      .XX       0.00000  -0.00000   0.00000   0.00000  -0.00000
   11 O1      .YY       0.00000  -0.00000   0.00000   0.00000  -0.00000
   12 O1      .ZZ       0.00000  -0.00000   0.00000   0.00000  -0.00000
   13 O1      .XY       0.00000  -0.00055   0.00055  -0.00040   0.00040
   14 O1      .XZ      -0.03822   0.00027   0.00027   0.00076   0.00076
   15 O1      .YZ       0.00000  -0.00000   0.00000   0.00000   0.00000
   16 C2      .S       -0.00000  -0.00000   0.00000   0.00000  -0.00000
   17 C2      .S        0.00000   0.00000  -0.00000  -0.00000  -0.00000
   18 C2      .X       -0.07126  -0.00518   0.42766  -0.01220   0.58794
   19 C2      .Y        0.00000   0.00000   0.00000   0.00000  -0.00000
   20 C2      .Z       -0.00000  -0.00000  -0.00000   0.00000   0.00000
   21 C2      .S        0.00000   0.00000   0.00000   0.00000   0.00000
   22 C2      .X       -0.05504  -0.00581   0.27865   0.00118   0.40440
   23 C2      .Y       -0.00000   0.00000  -0.00000  -0.00000  -0.00000
   24 C2      .Z        0.00000  -0.00000  -0.00000  -0.00000  -0.00000
   25 C2      .XX       0.00000   0.00000  -0.00000   0.00000  -0.00000
   26 C2      .YY      -0.00000   0.00000  -0.00000   0.00000  -0.00000
   27 C2      .ZZ       0.00000   0.00000  -0.00000   0.00000   0.00000
   28 C2      .XY       0.00432   0.00004  -0.00942  -0.00014  -0.01236
   29 C2      .XZ      -0.00161   0.00000  -0.01391   0.00040  -0.02102
   30 C2      .YZ       0.00000   0.00000  -0.00000   0.00000  -0.00000
   31 C3      .S       -0.00000   0.00000  -0.00000   0.00000   0.00000
   32 C3      .S        0.00000  -0.00000   0.00000   0.00000   0.00000
   33 C3      .X       -0.07126   0.42766  -0.00518   0.58794  -0.01220
   34 C3      .Y        0.00000   0.00000  -0.00000  -0.00000  -0.00000
   35 C3      .Z       -0.00000  -0.00000   0.00000   0.00000  -0.00000
   36 C3      .S       -0.00000   0.00000   0.00000  -0.00000  -0.00000
   37 C3      .X       -0.05504   0.27865  -0.00581   0.40440   0.00118
   38 C3      .Y        0.00000   0.00000  -0.00000   0.00000  -0.00000
   39 C3      .Z       -0.00000  -0.00000  -0.00000   0.00000   0.00000
   40 C3      .XX      -0.00000   0.00000   0.00000  -0.00000   0.00000
   41 C3      .YY      -0.00000   0.00000   0.00000  -0.00000  -0.00000
   42 C3      .ZZ      -0.00000   0.00000   0.00000  -0.00000  -0.00000
   43 C3      .XY      -0.00432   0.00942  -0.00004   0.01236   0.00014
   44 C3      .XZ      -0.00161  -0.01391   0.00000  -0.02102   0.00040
   45 C3      .YZ      -0.00000   0.00000   0.00000   0.00000  -0.00000
   46 C4      .S       -0.00000   0.00000  -0.00000   0.00000   0.00000
   47 C4      .S       -0.00000  -0.00000   0.00000   0.00000   0.00000
   48 C4      .X        0.00747  -0.06611   0.42445   0.07141  -0.58172
   49 C4      .Y        0.00000  -0.00000   0.00000   0.00000   0.00000
   50 C4      .Z        0.00000   0.00000   0.00000  -0.00000   0.00000
   51 C4      .S       -0.00000  -0.00000  -0.00000  -0.00000  -0.00000
   52 C4      .X       -0.00101  -0.05503   0.29331   0.04961  -0.41847
   53 C4      .Y        0.00000  -0.00000   0.00000   0.00000   0.00000
   54 C4      .Z       -0.00000  -0.00000  -0.00000  -0.00000  -0.00000
   55 C4      .XX      -0.00000  -0.00000  -0.00000   0.00000  -0.00000
   56 C4      .YY      -0.00000  -0.00000  -0.00000   0.00000  -0.00000
   57 C4      .ZZ      -0.00000  -0.00000  -0.00000   0.00000  -0.00000
   58 C4      .XY       0.00004  -0.00005  -0.00031  -0.00039  -0.00094
   59 C4      .XZ       0.00044  -0.00044   0.01840   0.00066  -0.02501
   60 C4      .YZ      -0.00000   0.00000   0.00000  -0.00000  -0.00000
   61 C5      .S       -0.00000  -0.00000   0.00000  -0.00000  -0.00000
   62 C5      .S        0.00000   0.00000  -0.00000  -0.00000  -0.00000
   63 C5      .X        0.00747   0.42445  -0.06611  -0.58172   0.07141
   64 C5      .Y       -0.00000  -0.00000   0.00000   0.00000  -0.00000
   65 C5      .Z       -0.00000  -0.00000  -0.00000   0.00000   0.00000
   66 C5      .S        0.00000   0.00000   0.00000   0.00000   0.00000
   67 C5      .X       -0.00101   0.29331  -0.05503  -0.41847   0.04961
   68 C5      .Y        0.00000  -0.00000   0.00000  -0.00000   0.00000
   69 C5      .Z       -0.00000  -0.00000   0.00000  -0.00000   0.00000
   70 C5      .XX      -0.00000  -0.00000  -0.00000   0.00000  -0.00000
   71 C5      .YY       0.00000  -0.00000  -0.00000  -0.00000   0.00000
   72 C5      .ZZ      -0.00000   0.00000  -0.00000   0.00000   0.00000
   73 C5      .XY      -0.00004   0.00031   0.00005   0.00094   0.00039
   74 C5      .XZ       0.00044   0.01840  -0.00044  -0.02501   0.00066
   75 C5      .YZ       0.00000   0.00000   0.00000  -0.00000  -0.00000
   76 H6      .S        0.00000   0.00000   0.00000  -0.00000   0.00000
   77 H6      .S        0.00000   0.00000   0.00000   0.00000   0.00000
   78 H7      .S        0.00000  -0.00000  -0.00000   0.00000   0.00000
   79 H7      .S        0.00000  -0.00000  -0.00000  -0.00000  -0.00000
   80 H8      .S       -0.00000  -0.00000   0.00000   0.00000  -0.00000
   81 H8      .S       -0.00000  -0.00000  -0.00000  -0.00000  -0.00000
   82 H9      .S        0.00000   0.00000  -0.00000  -0.00000   0.00000
   83 H9      .S       -0.00000   0.00000  -0.00000  -0.00000   0.00000
                          21        22        23        24        25
                           V         V         V         V         V    
     Eigenvalues --    12.14863  12.14863  15.04248  15.04248  15.14593
    1 O1      .S        0.08591   0.08591  -0.00744  -0.00744  -0.00231
    2 O1      .S       -0.38832  -0.38832  -0.01068  -0.01068  -0.00812
    3 O1      .X       -0.00000   0.00000   0.00000  -0.00000  -0.00000
    4 O1      .Y        0.51098  -0.51098  -0.05684   0.05684   0.00407
    5 O1      .Z        0.29483   0.29483   0.03679   0.03679  -0.01792
    6 O1      .S       -0.34490  -0.34490   0.08339   0.08339   0.04243
    7 O1      .X        0.00000  -0.00000  -0.00000   0.00000   0.00000
    8 O1      .Y        0.28474  -0.28474  -0.03142   0.03142  -0.02440
    9 O1      .Z        0.28517   0.28517  -0.01777  -0.01777  -0.02140
   10 O1      .XX      -0.00855  -0.00855  -0.01052  -0.01052  -0.00501
   11 O1      .YY      -0.03108  -0.03108  -0.01432  -0.01432  -0.00572
   12 O1      .ZZ      -0.03231  -0.03231  -0.01008  -0.01008  -0.00504
   13 O1      .XY       0.00000  -0.00000  -0.00000   0.00000  -0.00000
   14 O1      .XZ       0.00000   0.00000   0.00000  -0.00000  -0.00000
   15 O1      .YZ      -0.03045   0.03045  -0.00237   0.00237   0.00032
   16 C2      .S        0.00185  -0.08116   0.00140   0.08762  -0.00299
   17 C2      .S       -0.04317   0.43093  -0.03769  -0.35280  -0.00917
   18 C2      .X        0.00000   0.00000  -0.00000  -0.00000   0.00000
   19 C2      .Y        0.00670  -0.64623   0.03484  -0.65930  -0.03110
   20 C2      .Z       -0.05130   0.50772   0.00585  -0.34542  -0.01350
   21 C2      .S        0.13199   0.28221   0.09309  -0.61131   0.15502
   22 C2      .X       -0.00000   0.00000   0.00000  -0.00000  -0.00000
   23 C2      .Y       -0.14365  -0.19377  -0.08373  -0.12031  -0.07221
   24 C2      .Z       -0.02645   0.15815  -0.04730  -0.02999  -0.03633
   25 C2      .XX       0.00701   0.00260   0.00064  -0.03159   0.00765
   26 C2      .YY       0.00323   0.06453   0.00087  -0.04753   0.00771
   27 C2      .ZZ       0.00351   0.03334   0.00155  -0.03670   0.00760
   28 C2      .XY       0.00000  -0.00000  -0.00000   0.00000   0.00000
   29 C2      .XZ       0.00000   0.00000   0.00000  -0.00000   0.00000
   30 C2      .YZ       0.00419  -0.05399   0.00015  -0.01709   0.00026
   31 C3      .S       -0.08116   0.00185   0.08762   0.00140   0.00758
   32 C3      .S        0.43093  -0.04317  -0.35280  -0.03769   0.03045
   33 C3      .X       -0.00000   0.00000  -0.00000  -0.00000  -0.00000
   34 C3      .Y        0.64623  -0.00670   0.65930  -0.03484   0.06771
   35 C3      .Z        0.50772  -0.05130  -0.34542   0.00585   0.03259
   36 C3      .S        0.28221   0.13199  -0.61131   0.09309  -0.21504
   37 C3      .X        0.00000   0.00000   0.00000   0.00000  -0.00000
   38 C3      .Y        0.19377   0.14365   0.12031   0.08373  -0.13341
   39 C3      .Z        0.15815  -0.02645  -0.02999  -0.04730   0.11976
   40 C3      .XX       0.00260   0.00701  -0.03159   0.00064  -0.00759
   41 C3      .YY       0.06453   0.00323  -0.04753   0.00087  -0.00948
   42 C3      .ZZ       0.03334   0.00351  -0.03670   0.00155  -0.00639
   43 C3      .XY       0.00000   0.00000   0.00000   0.00000   0.00000
   44 C3      .XZ      -0.00000   0.00000   0.00000   0.00000  -0.00000
   45 C3      .YZ       0.05399  -0.00419   0.01709  -0.00015   0.00135
   46 C4      .S        0.00279   0.00566   0.00319  -0.01104   0.00815
   47 C4      .S        0.00676  -0.03955   0.00416  -0.05059   0.03791
   48 C4      .X       -0.00000   0.00000   0.00000  -0.00000  -0.00000
   49 C4      .Y        0.00566   0.10164   0.01852   0.07787   0.01032
   50 C4      .Z       -0.02890  -0.05668  -0.03083  -0.01520   0.07151
   51 C4      .S       -0.26498   0.13124  -0.19991   0.29356  -0.25691
   52 C4      .X        0.00000  -0.00000  -0.00000   0.00000   0.00000
   53 C4      .Y        0.14898  -0.21585   0.07262  -0.09495   0.14578
   54 C4      .Z       -0.06487   0.03582  -0.06950   0.18627  -0.14430
   55 C4      .XX      -0.00973   0.00418  -0.00544   0.00214  -0.00275
   56 C4      .YY      -0.00817   0.00012  -0.00557   0.00206  -0.00287
   57 C4      .ZZ      -0.00911   0.01098  -0.00556   0.00503  -0.00381
   58 C4      .XY      -0.00000   0.00000  -0.00000   0.00000  -0.00000
   59 C4      .XZ       0.00000  -0.00000  -0.00000   0.00000   0.00000
   60 C4      .YZ       0.00094  -0.00149   0.00041  -0.00218   0.00168
   61 C5      .S        0.00566   0.00279  -0.01104   0.00319  -0.08607
   62 C5      .S       -0.03955   0.00676  -0.05059   0.00416   0.33314
   63 C5      .X        0.00000   0.00000  -0.00000   0.00000  -0.00000
   64 C5      .Y       -0.10164  -0.00566  -0.07787  -0.01852  -0.45533
   65 C5      .Z       -0.05668  -0.02890  -0.01520  -0.03083  -0.59206
   66 C5      .S        0.13124  -0.26498   0.29356  -0.19991   0.74749
   67 C5      .X       -0.00000  -0.00000  -0.00000  -0.00000  -0.00000
   68 C5      .Y        0.21585  -0.14898   0.09495  -0.07262  -0.06886
   69 C5      .Z        0.03582  -0.06487   0.18627  -0.06950  -0.07757
   70 C5      .XX       0.00418  -0.00973   0.00214  -0.00544   0.02509
   71 C5      .YY       0.00012  -0.00817   0.00206  -0.00557   0.03515
   72 C5      .ZZ       0.01098  -0.00911   0.00503  -0.00556   0.03999
   73 C5      .XY      -0.00000  -0.00000  -0.00000   0.00000  -0.00000
   74 C5      .XZ      -0.00000  -0.00000  -0.00000  -0.00000  -0.00000
   75 C5      .YZ       0.00149  -0.00094   0.00218  -0.00041   0.01310
   76 H6      .S        0.00206   0.00196   0.00150   0.88660   0.00378
   77 H6      .S        0.02787  -0.04488   0.03884   0.44236   0.01079
   78 H7      .S        0.00196   0.00206   0.88660   0.00150   0.00129
   79 H7      .S       -0.04488   0.02787   0.44236   0.03884  -0.06021
   80 H8      .S       -0.00729   0.00827  -0.00467  -0.00254  -0.00143
   81 H8      .S       -0.02821   0.07631  -0.01241   0.06720  -0.06875
   82 H9      .S        0.00827  -0.00729  -0.00254  -0.00467  -0.87033
   83 H9      .S        0.07631  -0.02821   0.06720  -0.01241  -0.47682
                          26        27        28        29        30
                           V         V         V         V         V    
     Eigenvalues --    15.14593  16.24914  18.92264  18.92264  15.86359
    1 O1      .S       -0.00231   0.00000  -0.00193  -0.00193  -0.01707
    2 O1      .S       -0.00812   0.00000   0.00619   0.00619  -0.01032
    3 O1      .X       -0.00000   0.00000   0.00000   0.00000   0.00000
    4 O1      .Y       -0.00407   0.01772   0.03312  -0.03312   0.02304
    5 O1      .Z       -0.01792  -0.00000  -0.07034  -0.07034   0.00037
    6 O1      .S        0.04243  -0.00000  -0.02955  -0.02955   0.32253
    7 O1      .X        0.00000   0.00000  -0.00000  -0.00000  -0.00000
    8 O1      .Y        0.02440  -0.06711  -0.02919   0.02919   0.00809
    9 O1      .Z       -0.02140   0.00000   0.00032   0.00032  -0.16213
   10 O1      .XX      -0.00501   0.00000   0.00445   0.00445  -0.03463
   11 O1      .YY      -0.00572   0.00000   0.00144   0.00144  -0.03463
   12 O1      .ZZ      -0.00504   0.00000   0.00151   0.00151  -0.03463
   13 O1      .XY       0.00000   0.00000  -0.00000   0.00000  -0.00000
   14 O1      .XZ      -0.00000  -0.00000   0.00000  -0.00000   0.00000
   15 O1      .YZ      -0.00032  -0.00087  -0.00288   0.00288  -0.00000
   16 C2      .S        0.00758   0.00595  -0.00127   0.10246  -0.00382
   17 C2      .S        0.03045  -0.02476   0.05905  -0.65192  -0.14757
   18 C2      .X        0.00000   0.00000   0.00000   0.00000  -0.00000
   19 C2      .Y       -0.06771   0.10483  -0.02706   0.20067  -0.18993
   20 C2      .Z        0.03259  -0.00830   0.00964   0.78487  -0.07047
   21 C2      .S       -0.21504   0.09533  -0.20970  -0.05804   0.38709
   22 C2      .X       -0.00000  -0.00000   0.00000  -0.00000   0.00000
   23 C2      .Y        0.13341  -0.16138   0.08532  -0.04041   2.02904
   24 C2      .Z        0.11976   0.03069   0.10374   0.15047   1.24926
   25 C2      .XX      -0.00759   0.00697  -0.00978  -0.00670   0.00914
   26 C2      .YY      -0.00948   0.00620  -0.00905  -0.00891   0.00914
   27 C2      .ZZ      -0.00639   0.00935  -0.00888  -0.03527   0.00914
   28 C2      .XY       0.00000   0.00000  -0.00000  -0.00000  -0.00000
   29 C2      .XZ      -0.00000  -0.00000  -0.00000  -0.00000  -0.00000
   30 C2      .YZ      -0.00135   0.00192   0.00005  -0.01558   0.00000
   31 C3      .S       -0.00299  -0.00595   0.10246  -0.00127  -0.01064
   32 C3      .S       -0.00917   0.02476  -0.65192   0.05905  -0.11889
   33 C3      .X       -0.00000   0.00000   0.00000   0.00000  -0.00000
   34 C3      .Y        0.03110   0.10483  -0.20067   0.02706  -0.01788
   35 C3      .Z       -0.01350   0.00830   0.78487   0.00964  -0.02326
   36 C3      .S        0.15502  -0.09533  -0.05804  -0.20970   0.42376
   37 C3      .X       -0.00000  -0.00000  -0.00000  -0.00000   0.00000
   38 C3      .Y        0.07221  -0.16138   0.04041  -0.08532   0.42882
   39 C3      .Z       -0.03633  -0.03069   0.15047   0.10374  -0.21108
   40 C3      .XX       0.00765  -0.00697  -0.00670  -0.00978   0.01397
   41 C3      .YY       0.00771  -0.00620  -0.00891  -0.00905   0.01397
   42 C3      .ZZ       0.00760  -0.00935  -0.03527  -0.00888   0.01397
   43 C3      .XY      -0.00000  -0.00000  -0.00000  -0.00000  -0.00000
   44 C3      .XZ       0.00000   0.00000   0.00000   0.00000  -0.00000
   45 C3      .YZ      -0.00026   0.00192   0.01558  -0.00005   0.00000
   46 C4      .S       -0.08607  -0.09092   0.00318  -0.09264  -0.00558
   47 C4      .S        0.33314   0.54948  -0.02968   0.62717  -0.11229
   48 C4      .X       -0.00000   0.00000   0.00000   0.00000   0.00000
   49 C4      .Y        0.45533  -0.77315   0.00538   0.25693   0.01463
   50 C4      .Z       -0.59206  -0.04967  -0.09723   0.78726   0.04183
   51 C4      .S        0.74749   0.01884   0.23747  -0.02376   1.39966
   52 C4      .X        0.00000   0.00000  -0.00000  -0.00000   0.00000
   53 C4      .Y        0.06886  -0.13663  -0.03429   0.17209  -0.49096
   54 C4      .Z       -0.07757  -0.08220   0.21450   0.09886   0.87170
   55 C4      .XX       0.02509   0.01003   0.00817   0.01316   0.03307
   56 C4      .YY       0.03515   0.04504   0.01138   0.01590   0.03307
   57 C4      .ZZ       0.03999   0.01358   0.00688   0.04904   0.03307
   58 C4      .XY       0.00000   0.00000   0.00000   0.00000  -0.00000
   59 C4      .XZ       0.00000   0.00000  -0.00000  -0.00000   0.00000
   60 C4      .YZ      -0.01310  -0.00425  -0.00040   0.00706  -0.00000
   61 C5      .S        0.00815   0.09092  -0.09264   0.00318  -0.00737
   62 C5      .S        0.03791  -0.54948   0.62717  -0.02968  -0.00093
   63 C5      .X        0.00000   0.00000   0.00000   0.00000   0.00000
   64 C5      .Y       -0.01032  -0.77315  -0.25693  -0.00538  -0.02219
   65 C5      .Z        0.07151   0.04967   0.78726  -0.09723  -0.01329
   66 C5      .S       -0.25691  -0.01884  -0.02376   0.23747  -0.64886
   67 C5      .X       -0.00000   0.00000   0.00000   0.00000  -0.00000
   68 C5      .Y       -0.14578  -0.13663  -0.17209   0.03429  -0.16685
   69 C5      .Z       -0.14430   0.08220   0.09886   0.21450  -0.17530
   70 C5      .XX      -0.00275  -0.01003   0.01316   0.00817  -0.02040
   71 C5      .YY      -0.00287  -0.04504   0.01590   0.01138  -0.02040
   72 C5      .ZZ      -0.00381  -0.01358   0.04904   0.00688  -0.02040
   73 C5      .XY      -0.00000   0.00000   0.00000   0.00000  -0.00000
   74 C5      .XZ       0.00000  -0.00000  -0.00000   0.00000  -0.00000
   75 C5      .YZ      -0.00168  -0.00425  -0.00706   0.00040   0.00000
   76 H6      .S        0.00129   0.00464   0.00263  -0.04909   0.83674
   77 H6      .S       -0.06021   0.05909  -0.03594   0.07635  -3.09919
   78 H7      .S        0.00378  -0.00464  -0.04909   0.00263   0.03967
   79 H7      .S        0.01079  -0.05909   0.07635  -0.03594   0.18001
   80 H8      .S       -0.87033   0.03377   0.01157   0.03561   0.05027
   81 H8      .S       -0.47682  -0.05842   0.07076  -0.07653   0.31536
   82 H9      .S       -0.00143  -0.03377   0.03561   0.01157   0.00810
   83 H9      .S       -0.06875   0.05842  -0.07653   0.07076  -0.01105
                          31        32        33        34        35
                           V         V         V         V         V    
     Eigenvalues --    15.86359  16.30893  16.30893  21.98790  21.98790
    1 O1      .S       -0.01707   0.00596   0.00596   0.01869   0.01869
    2 O1      .S       -0.01032  -0.01078  -0.01078  -0.08907  -0.08907
    3 O1      .X       -0.00000   0.00000   0.00000   0.00000   0.00000
    4 O1      .Y       -0.02304   0.00518  -0.00518   0.03590  -0.03590
    5 O1      .Z        0.00037   0.00521   0.00521   0.01671   0.01671
    6 O1      .S        0.32253  -0.17386  -0.17386  -0.33140  -0.33140
    7 O1      .X        0.00000  -0.00000  -0.00000   0.00000  -0.00000
    8 O1      .Y       -0.00809   0.08428  -0.08428   0.36918  -0.36918
    9 O1      .Z       -0.16213   0.03319   0.03319  -0.01669  -0.01669
   10 O1      .XX      -0.03463   0.01625   0.01625   0.02269   0.02269
   11 O1      .YY      -0.03463   0.01625   0.01625   0.01779   0.01779
   12 O1      .ZZ      -0.03463   0.01625   0.01625   0.02542   0.02542
   13 O1      .XY       0.00000   0.00000  -0.00000   0.00000  -0.00000
   14 O1      .XZ       0.00000  -0.00000   0.00000  -0.00000   0.00000
   15 O1      .YZ       0.00000  -0.00000   0.00000  -0.00016   0.00016
   16 C2      .S       -0.01064  -0.00991   0.00472  -0.00873   0.00992
   17 C2      .S       -0.11889   0.02308  -0.09711   0.01491   0.07204
   18 C2      .X       -0.00000  -0.00000   0.00000   0.00000  -0.00000
   19 C2      .Y        0.01788  -0.00450  -0.02949  -0.01356  -0.13070
   20 C2      .Z       -0.02326   0.03525  -0.04875  -0.03373  -0.00741
   21 C2      .S        0.42376  -0.48250   1.15636  -0.12660  -0.49217
   22 C2      .X       -0.00000   0.00000  -0.00000  -0.00000   0.00000
   23 C2      .Y       -0.42882   0.14625  -0.80443   0.42624  -1.44526
   24 C2      .Z       -0.21108   0.07664  -0.49789  -0.26113   0.65839
   25 C2      .XX       0.01397  -0.02577   0.05824  -0.00729  -0.01405
   26 C2      .YY       0.01397  -0.02577   0.05824  -0.00803  -0.02455
   27 C2      .ZZ       0.01397  -0.02577   0.05824  -0.00997   0.00114
   28 C2      .XY      -0.00000   0.00000  -0.00000  -0.00000  -0.00000
   29 C2      .XZ       0.00000   0.00000   0.00000  -0.00000  -0.00000
   30 C2      .YZ       0.00000   0.00000   0.00000   0.00242  -0.01557
   31 C3      .S       -0.00382   0.00472  -0.00991   0.00992  -0.00873
   32 C3      .S       -0.14757  -0.09711   0.02308   0.07204   0.01491
   33 C3      .X       -0.00000   0.00000  -0.00000   0.00000  -0.00000
   34 C3      .Y        0.18993   0.02949   0.00450   0.13070   0.01356
   35 C3      .Z       -0.07047  -0.04875   0.03525  -0.00741  -0.03373
   36 C3      .S        0.38709   1.15636  -0.48250  -0.49217  -0.12660
   37 C3      .X        0.00000  -0.00000   0.00000  -0.00000   0.00000
   38 C3      .Y       -2.02904   0.80443  -0.14625   1.44526  -0.42624
   39 C3      .Z        1.24926  -0.49789   0.07664   0.65839  -0.26113
   40 C3      .XX       0.00914   0.05824  -0.02577  -0.01405  -0.00729
   41 C3      .YY       0.00914   0.05824  -0.02577  -0.02455  -0.00803
   42 C3      .ZZ       0.00914   0.05824  -0.02577   0.00114  -0.00997
   43 C3      .XY      -0.00000   0.00000   0.00000  -0.00000   0.00000
   44 C3      .XZ       0.00000   0.00000  -0.00000   0.00000  -0.00000
   45 C3      .YZ      -0.00000  -0.00000  -0.00000   0.01557  -0.00242
   46 C4      .S       -0.00737  -0.00707   0.00107  -0.00441  -0.00655
   47 C4      .S       -0.00093  -0.10522  -0.08832  -0.11230   0.39935
   48 C4      .X       -0.00000  -0.00000   0.00000  -0.00000   0.00000
   49 C4      .Y        0.02219  -0.04993  -0.14414  -0.16079  -0.79053
   50 C4      .Z       -0.01329  -0.00016   0.17206  -0.05271  -0.21224
   51 C4      .S       -0.64886   1.26092  -0.17421   2.74702  -1.27814
   52 C4      .X        0.00000   0.00000  -0.00000  -0.00000   0.00000
   53 C4      .Y        0.16685  -0.70756   1.66694  -1.68262   4.12129
   54 C4      .Z       -0.17530   0.74766  -2.19594  -0.17556  -0.04391
   55 C4      .XX      -0.02040   0.02943  -0.01419   0.08396  -0.11878
   56 C4      .YY      -0.02040   0.02943  -0.01419   0.11819  -0.22930
   57 C4      .ZZ      -0.02040   0.02943  -0.01419   0.08127  -0.07826
   58 C4      .XY       0.00000   0.00000   0.00000   0.00000   0.00000
   59 C4      .XZ       0.00000  -0.00000   0.00000  -0.00000  -0.00000
   60 C4      .YZ       0.00000   0.00000   0.00000   0.01323  -0.10640
   61 C5      .S       -0.00558   0.00107  -0.00707  -0.00655  -0.00441
   62 C5      .S       -0.11229  -0.08832  -0.10522   0.39935  -0.11230
   63 C5      .X        0.00000  -0.00000  -0.00000   0.00000   0.00000
   64 C5      .Y       -0.01463   0.14414   0.04993   0.79053   0.16079
   65 C5      .Z        0.04183   0.17206  -0.00016  -0.21224  -0.05271
   66 C5      .S        1.39966  -0.17421   1.26092  -1.27814   2.74702
   67 C5      .X       -0.00000   0.00000  -0.00000  -0.00000  -0.00000
   68 C5      .Y        0.49096  -1.66694   0.70756  -4.12129   1.68262
   69 C5      .Z        0.87170  -2.19594   0.74766  -0.04391  -0.17556
   70 C5      .XX       0.03307  -0.01419   0.02943  -0.11878   0.08396
   71 C5      .YY       0.03307  -0.01419   0.02943  -0.22930   0.11819
   72 C5      .ZZ       0.03307  -0.01419   0.02943  -0.07826   0.08127
   73 C5      .XY       0.00000  -0.00000   0.00000  -0.00000   0.00000
   74 C5      .XZ       0.00000   0.00000  -0.00000  -0.00000  -0.00000
   75 C5      .YZ       0.00000  -0.00000  -0.00000   0.10640  -0.01323
   76 H6      .S        0.03967   0.01463   0.05349  -0.00891   0.20121
   77 H6      .S        0.18001  -0.00308   0.31753  -0.06348   0.38439
   78 H7      .S        0.83674   0.05349   0.01463   0.20121  -0.00891
   79 H7      .S       -3.09919   0.31753  -0.00308   0.38439  -0.06348
   80 H8      .S        0.00810   0.06140   0.83145  -0.04686  -0.32920
   81 H8      .S       -0.01105   0.34146  -3.20851   0.15250  -1.06509
   82 H9      .S        0.05027   0.83145   0.06140  -0.32920  -0.04686
   83 H9      .S        0.31536  -3.20851   0.34146  -1.06509   0.15250
                          36        37        38        39        40
                           V         V         V         V         V    
     Eigenvalues --    26.06164  26.06164  30.98688  32.17627  32.52952
    1 O1      .S        0.02285   0.02285  -0.00000   0.04261   0.00000
    2 O1      .S       -0.26987  -0.26987  -0.00000  -0.41459   0.00000
    3 O1      .X       -0.00000  -0.00000   0.85035   0.00000  -0.02122
    4 O1      .Y       -0.09967   0.09967   0.00000   0.00000  -0.00000
    5 O1      .Z       -0.01613  -0.01613   0.00000  -0.80018  -0.00000
    6 O1      .S       -0.42499  -0.42499   0.00000   0.48646  -0.00000
    7 O1      .X        0.00000  -0.00000  -1.22362  -0.00000   0.03050
    8 O1      .Y       -0.68407   0.68407   0.00000  -0.00000   0.00000
    9 O1      .Z       -0.22667  -0.22667  -0.00000   1.25448   0.00000
   10 O1      .XX      -0.00778  -0.00778  -0.00000  -0.02138   0.00000
   11 O1      .YY      -0.05668  -0.05668  -0.00000  -0.36789   0.00000
   12 O1      .ZZ       0.05846   0.05846  -0.00000   0.32778   0.00000
   13 O1      .XY       0.00000   0.00000   0.00000  -0.00000   0.00057
   14 O1      .XZ      -0.00000  -0.00000  -0.37170  -0.00000  -0.00706
   15 O1      .YZ       0.00391  -0.00391  -0.00000  -0.00000   0.00000
   16 C2      .S        0.01374   0.01311   0.00000   0.02064   0.00000
   17 C2      .S       -0.66645   0.07812   0.00000   0.13771  -0.00000
   18 C2      .X       -0.00000  -0.00000   0.00614  -0.00000  -0.00083
   19 C2      .Y        0.49433   0.14949   0.00000  -0.13104  -0.00000
   20 C2      .Z       -0.55282  -0.02162  -0.00000   0.07780   0.00000
   21 C2      .S        1.04571  -0.99043  -0.00000   0.19868   0.00000
   22 C2      .X       -0.00000   0.00000   0.37509  -0.00000  -0.09947
   23 C2      .Y       -2.24832   0.90506   0.00000  -0.02638  -0.00000
   24 C2      .Z        1.17824  -0.01428   0.00000  -0.51395  -0.00000
   25 C2      .XX       0.20464  -0.05779   0.00000   0.03089   0.00000
   26 C2      .YY      -0.27090  -0.07101  -0.00000  -0.01665   0.00000
   27 C2      .ZZ       0.41712  -0.04589  -0.00000   0.07724   0.00000
   28 C2      .XY       0.00000   0.00000   0.04201   0.00000   0.00546
   29 C2      .XZ      -0.00000  -0.00000  -0.01565   0.00000  -0.00357
   30 C2      .YZ      -0.21994  -0.00091   0.00000  -0.03084  -0.00000
   31 C3      .S        0.01311   0.01374   0.00000   0.02064   0.00000
   32 C3      .S        0.07812  -0.66645  -0.00000   0.13771  -0.00000
   33 C3      .X        0.00000  -0.00000   0.00614   0.00000  -0.02816
   34 C3      .Y       -0.14949  -0.49433  -0.00000   0.13104   0.00000
   35 C3      .Z       -0.02162  -0.55282  -0.00000   0.07780   0.00000
   36 C3      .S       -0.99043   1.04571   0.00000   0.19868  -0.00000
   37 C3      .X       -0.00000   0.00000   0.37509  -0.00000   0.20117
   38 C3      .Y       -0.90506   2.24832   0.00000   0.02638   0.00000
   39 C3      .Z       -0.01428   1.17824  -0.00000  -0.51395   0.00000
   40 C3      .XX      -0.05779   0.20464   0.00000   0.03089  -0.00000
   41 C3      .YY      -0.07101  -0.27090   0.00000  -0.01665   0.00000
   42 C3      .ZZ      -0.04589   0.41712   0.00000   0.07724  -0.00000
   43 C3      .XY      -0.00000   0.00000  -0.04201   0.00000  -0.03334
   44 C3      .XZ       0.00000   0.00000  -0.01565   0.00000   0.11172
   45 C3      .YZ       0.00091   0.21994  -0.00000   0.03084   0.00000
   46 C4      .S        0.00216   0.00198  -0.00000  -0.00584   0.00000
   47 C4      .S        0.04813  -0.00546  -0.00000  -0.03370  -0.00000
   48 C4      .X        0.00000  -0.00000  -0.00337   0.00000   0.04987
   49 C4      .Y        0.01604  -0.05131   0.00000  -0.00586  -0.00000
   50 C4      .Z       -0.12756   0.01854  -0.00000  -0.03724   0.00000
   51 C4      .S       -0.60092   1.24166   0.00000  -0.44910  -0.00000
   52 C4      .X        0.00000   0.00000  -0.10342   0.00000   0.39778
   53 C4      .Y        1.38237  -0.66693  -0.00000  -0.24763   0.00000
   54 C4      .Z       -0.41767   0.21938   0.00000  -0.00095  -0.00000
   55 C4      .XX      -0.03366   0.03247  -0.00000  -0.01738   0.00000
   56 C4      .YY      -0.04850   0.03397  -0.00000  -0.02305   0.00000
   57 C4      .ZZ      -0.04435   0.03748  -0.00000  -0.00834   0.00000
   58 C4      .XY      -0.00000  -0.00000   0.00035  -0.00000  -0.03953
   59 C4      .XZ      -0.00000   0.00000   0.00426   0.00000  -0.01287
   60 C4      .YZ      -0.07255   0.01092   0.00000  -0.01236   0.00000
   61 C5      .S        0.00198   0.00216   0.00000  -0.00584  -0.00000
   62 C5      .S       -0.00546   0.04813  -0.00000  -0.03370   0.00000
   63 C5      .X       -0.00000   0.00000  -0.00337  -0.00000   0.76085
   64 C5      .Y        0.05131  -0.01604  -0.00000   0.00586  -0.00000
   65 C5      .Z        0.01854  -0.12756   0.00000  -0.03724  -0.00000
   66 C5      .S        1.24166  -0.60092  -0.00000  -0.44910   0.00000
   67 C5      .X        0.00000  -0.00000  -0.10342   0.00000  -1.11844
   68 C5      .Y        0.66693  -1.38237  -0.00000   0.24763   0.00000
   69 C5      .Z        0.21938  -0.41767  -0.00000  -0.00095   0.00000
   70 C5      .XX       0.03247  -0.03366   0.00000  -0.01738  -0.00000
   71 C5      .YY       0.03397  -0.04850   0.00000  -0.02305  -0.00000
   72 C5      .ZZ       0.03748  -0.04435   0.00000  -0.00834  -0.00000
   73 C5      .XY      -0.00000  -0.00000  -0.00035   0.00000  -0.31937
   74 C5      .XZ       0.00000  -0.00000   0.00426  -0.00000   0.61340
   75 C5      .YZ      -0.01092   0.07255   0.00000   0.01236   0.00000
   76 H6      .S        0.31538  -0.05923  -0.00000   0.06645  -0.00000
   77 H6      .S        0.42768  -0.21596  -0.00000   0.04798   0.00000
   78 H7      .S       -0.05923   0.31538   0.00000   0.06645  -0.00000
   79 H7      .S       -0.21596   0.42768  -0.00000   0.04798   0.00000
   80 H8      .S       -0.15386  -0.00021   0.00000   0.05324  -0.00000
   81 H8      .S       -0.33412   0.10555   0.00000   0.11715  -0.00000
   82 H9      .S       -0.00021  -0.15386  -0.00000   0.05324   0.00000
   83 H9      .S        0.10555  -0.33412  -0.00000   0.11715   0.00000
                          41        42        43        44        45
                           V         V         V         V         V    
     Eigenvalues --    32.52952  32.85700  32.85700  33.01799  33.01799
    1 O1      .S        0.00000   0.01418   0.01418   0.00077   0.00077
    2 O1      .S       -0.00000  -0.06937  -0.06937   0.02305   0.02305
    3 O1      .X       -0.02122  -0.00000   0.00000  -0.00000   0.00000
    4 O1      .Y        0.00000   0.02523  -0.02523   0.01918  -0.01918
    5 O1      .Z       -0.00000   0.11510   0.11510  -0.02281  -0.02281
    6 O1      .S       -0.00000  -0.40243  -0.40243  -0.01154  -0.01154
    7 O1      .X        0.03050   0.00000  -0.00000   0.00000  -0.00000
    8 O1      .Y       -0.00000   0.02475  -0.02475   0.07458  -0.07458
    9 O1      .Z       -0.00000   0.48789   0.48789  -0.11561  -0.11561
   10 O1      .XX       0.00000   0.01517   0.01517   0.00784   0.00784
   11 O1      .YY       0.00000  -0.06583  -0.06583  -0.00475  -0.00475
   12 O1      .ZZ       0.00000   0.05861   0.05861   0.00971   0.00971
   13 O1      .XY      -0.00057  -0.00000  -0.00000  -0.00000  -0.00000
   14 O1      .XZ      -0.00706  -0.00000  -0.00000  -0.00000   0.00000
   15 O1      .YZ       0.00000  -0.04235   0.04235   0.00223  -0.00223
   16 C2      .S        0.00000   0.02571  -0.03587   0.01300   0.00950
   17 C2      .S        0.00000   0.30017  -0.76404   0.26164  -0.07494
   18 C2      .X       -0.02816   0.00000  -0.00000   0.00000   0.00000
   19 C2      .Y        0.00000  -0.01790   0.37991   0.01151  -0.00295
   20 C2      .Z        0.00000   0.09751   0.54257   0.02898  -0.04710
   21 C2      .S       -0.00000  -1.16366   3.54215  -1.96064   0.52163
   22 C2      .X        0.20117   0.00000   0.00000  -0.00000  -0.00000
   23 C2      .Y        0.00000   1.02156  -3.64792   0.87452  -0.63289
   24 C2      .Z        0.00000   0.47383  -3.78476   1.11977  -0.07123
   25 C2      .XX       0.00000  -0.03629   0.08469  -0.10395   0.03326
   26 C2      .YY       0.00000  -0.05387  -0.18497  -0.11806   0.04106
   27 C2      .ZZ       0.00000  -0.03088   0.36783  -0.01876   0.03017
   28 C2      .XY       0.03334   0.00000  -0.00000   0.00000   0.00000
   29 C2      .XZ       0.11172  -0.00000   0.00000  -0.00000   0.00000
   30 C2      .YZ      -0.00000   0.00250  -0.37676  -0.01046   0.00900
   31 C3      .S       -0.00000  -0.03587   0.02571   0.00950   0.01300
   32 C3      .S       -0.00000  -0.76404   0.30017  -0.07494   0.26164
   33 C3      .X       -0.00083   0.00000  -0.00000  -0.00000   0.00000
   34 C3      .Y       -0.00000  -0.37991   0.01790   0.00295  -0.01151
   35 C3      .Z       -0.00000   0.54257   0.09751  -0.04710   0.02898
   36 C3      .S        0.00000   3.54215  -1.16366   0.52163  -1.96064
   37 C3      .X       -0.09947  -0.00000   0.00000  -0.00000   0.00000
   38 C3      .Y        0.00000   3.64792  -1.02156   0.63289  -0.87452
   39 C3      .Z       -0.00000  -3.78476   0.47383  -0.07123   1.11977
   40 C3      .XX      -0.00000   0.08469  -0.03629   0.03326  -0.10395
   41 C3      .YY      -0.00000  -0.18497  -0.05387   0.04106  -0.11806
   42 C3      .ZZ       0.00000   0.36783  -0.03088   0.03017  -0.01876
   43 C3      .XY      -0.00546  -0.00000   0.00000  -0.00000   0.00000
   44 C3      .XZ      -0.00357  -0.00000   0.00000   0.00000  -0.00000
   45 C3      .YZ       0.00000   0.37676  -0.00250  -0.00900   0.01046
   46 C4      .S        0.00000   0.01696   0.00782  -0.01345   0.03015
   47 C4      .S       -0.00000  -0.00360   0.25287  -2.30435   0.24990
   48 C4      .X        0.76085  -0.00000   0.00000   0.00000   0.00000
   49 C4      .Y       -0.00000  -0.02177  -0.09449  -0.12918   0.14514
   50 C4      .Z       -0.00000  -0.02629  -0.16654   0.24718   0.00489
   51 C4      .S        0.00000   1.45407  -4.63822   6.33794  -2.55660
   52 C4      .X       -1.11844   0.00000  -0.00000  -0.00000  -0.00000
   53 C4      .Y       -0.00000  -0.41027   0.62187  -0.90576   1.67412
   54 C4      .Z        0.00000   0.64146  -2.51701   0.47923  -0.44258
   55 C4      .XX      -0.00000   0.03416  -0.12280   0.28622  -0.06873
   56 C4      .YY       0.00000   0.03752  -0.14942   0.31646  -0.10143
   57 C4      .ZZ       0.00000   0.03870  -0.10480   0.13192  -0.07387
   58 C4      .XY       0.31937  -0.00000  -0.00000   0.00000   0.00000
   59 C4      .XZ       0.61340  -0.00000   0.00000   0.00000  -0.00000
   60 C4      .YZ       0.00000   0.01367  -0.07147  -0.34188   0.03850
   61 C5      .S       -0.00000   0.00782   0.01696   0.03015  -0.01345
   62 C5      .S        0.00000   0.25287  -0.00360   0.24990  -2.30435
   63 C5      .X        0.04987   0.00000  -0.00000   0.00000   0.00000
   64 C5      .Y        0.00000   0.09449   0.02177  -0.14514   0.12918
   65 C5      .Z        0.00000  -0.16654  -0.02629   0.00489   0.24718
   66 C5      .S       -0.00000  -4.63822   1.45407  -2.55660   6.33794
   67 C5      .X        0.39778  -0.00000  -0.00000   0.00000  -0.00000
   68 C5      .Y       -0.00000  -0.62187   0.41027  -1.67412   0.90576
   69 C5      .Z       -0.00000  -2.51701   0.64146  -0.44258   0.47923
   70 C5      .XX      -0.00000  -0.12280   0.03416  -0.06873   0.28622
   71 C5      .YY      -0.00000  -0.14942   0.03752  -0.10143   0.31646
   72 C5      .ZZ      -0.00000  -0.10480   0.03870  -0.07387   0.13192
   73 C5      .XY       0.03953   0.00000  -0.00000  -0.00000   0.00000
   74 C5      .XZ      -0.01287   0.00000  -0.00000   0.00000  -0.00000
   75 C5      .YZ      -0.00000   0.07147  -0.01367  -0.03850   0.34188
   76 H6      .S       -0.00000  -0.09506   0.71128  -0.03837   0.03609
   77 H6      .S       -0.00000  -0.39372   1.91044  -0.35273   0.17458
   78 H7      .S       -0.00000   0.71128  -0.09506   0.03609  -0.03837
   79 H7      .S        0.00000   1.91044  -0.39372   0.17458  -0.35273
   80 H8      .S       -0.00000  -0.00668  -0.08896  -0.37374  -0.00528
   81 H8      .S        0.00000   0.12155  -0.56321  -0.69565  -0.34440
   82 H9      .S       -0.00000  -0.08896  -0.00668  -0.00528  -0.37374
   83 H9      .S       -0.00000  -0.56321   0.12155  -0.34440  -0.69565
                          46        47        48        49        50
                           V         V         V         V         V    
     Eigenvalues --    33.78359  33.78359  34.46255  34.46255  38.97869
    1 O1      .S        0.00000   0.00000  -0.01885  -0.01885  -0.00802
    2 O1      .S        0.00000  -0.00000   0.05197   0.05197  -0.11336
    3 O1      .X       -0.03622  -0.03622   0.00000  -0.00000  -0.00000
    4 O1      .Y       -0.00000  -0.00000  -0.04254   0.04254   0.01484
    5 O1      .Z        0.00000  -0.00000   0.00739   0.00739  -0.07171
    6 O1      .S       -0.00000   0.00000   0.44178   0.44178   0.44689
    7 O1      .X       -0.31838  -0.31838  -0.00000   0.00000   0.00000
    8 O1      .Y        0.00000   0.00000  -0.15240   0.15240   0.37125
    9 O1      .Z        0.00000  -0.00000  -0.12759  -0.12759  -0.17046
   10 O1      .XX       0.00000  -0.00000  -0.04509  -0.04509  -0.04547
   11 O1      .YY       0.00000   0.00000  -0.03048  -0.03048   0.10702
   12 O1      .ZZ       0.00000   0.00000  -0.04743  -0.04743   0.04911
   13 O1      .XY      -0.06926   0.06926  -0.00000   0.00000  -0.00000
   14 O1      .XZ       0.03349   0.03349  -0.00000   0.00000  -0.00000
   15 O1      .YZ      -0.00000  -0.00000  -0.00164   0.00164  -0.16476
   16 C2      .S       -0.00000  -0.00000   0.02671  -0.03248  -0.04218
   17 C2      .S        0.00000   0.00000  -0.06763   0.22500  -1.56694
   18 C2      .X       -0.72061  -0.00385  -0.00000  -0.00000   0.00000
   19 C2      .Y        0.00000   0.00000   0.05989   0.09762  -0.16386
   20 C2      .Z       -0.00000  -0.00000  -0.13904   0.25326  -0.19225
   21 C2      .S        0.00000  -0.00000   1.59418  -4.12957   4.42885
   22 C2      .X        1.05571   0.01781  -0.00000   0.00000  -0.00000
   23 C2      .Y       -0.00000  -0.00000  -0.40122   1.90895   0.52020
   24 C2      .Z       -0.00000  -0.00000  -0.45541   1.75967  -1.61211
   25 C2      .XX      -0.00000   0.00000   0.08546  -0.23270   0.18914
   26 C2      .YY      -0.00000  -0.00000   0.08134  -0.20339  -0.33936
   27 C2      .ZZ      -0.00000  -0.00000   0.08873  -0.28801   0.20216
   28 C2      .XY      -0.04888  -0.00701   0.00000   0.00000   0.00000
   29 C2      .XZ       0.73338  -0.00401   0.00000   0.00000   0.00000
   30 C2      .YZ       0.00000   0.00000  -0.00807   0.02637   0.72285
   31 C3      .S        0.00000   0.00000  -0.03248   0.02671   0.00615
   32 C3      .S       -0.00000  -0.00000   0.22500  -0.06763   0.12547
   33 C3      .X       -0.00385  -0.72061   0.00000   0.00000   0.00000
   34 C3      .Y        0.00000  -0.00000  -0.09762  -0.05989  -0.00326
   35 C3      .Z        0.00000   0.00000   0.25326  -0.13904   0.03952
   36 C3      .S       -0.00000  -0.00000  -4.12957   1.59418  -0.76235
   37 C3      .X        0.01781   1.05571   0.00000  -0.00000  -0.00000
   38 C3      .Y       -0.00000   0.00000  -1.90895   0.40122  -0.44147
   39 C3      .Z        0.00000   0.00000   1.75967  -0.45541   0.55514
   40 C3      .XX       0.00000   0.00000  -0.23270   0.08546  -0.04297
   41 C3      .YY       0.00000   0.00000  -0.20339   0.08134  -0.04191
   42 C3      .ZZ       0.00000   0.00000  -0.28801   0.08873  -0.03678
   43 C3      .XY       0.00701   0.04888  -0.00000   0.00000   0.00000
   44 C3      .XZ      -0.00401   0.73338  -0.00000  -0.00000  -0.00000
   45 C3      .YZ       0.00000   0.00000  -0.02637   0.00807   0.01399
   46 C4      .S       -0.00000  -0.00000   0.00842  -0.04850   0.02133
   47 C4      .S        0.00000   0.00000   0.17345  -1.06692   0.22978
   48 C4      .X        0.04393   0.01291   0.00000  -0.00000   0.00000
   49 C4      .Y       -0.00000   0.00000   0.18025   0.17207  -0.04543
   50 C4      .Z        0.00000  -0.00000  -0.07021  -0.66537  -0.22165
   51 C4      .S       -0.00000   0.00000  -3.15991   4.99043  -2.70001
   52 C4      .X       -0.21535  -0.02389  -0.00000  -0.00000   0.00000
   53 C4      .Y        0.00000  -0.00000   1.42264  -2.51642  -0.53747
   54 C4      .Z       -0.00000  -0.00000  -2.38213   5.64646  -1.78165
   55 C4      .XX      -0.00000  -0.00000  -0.09317   0.18757  -0.07700
   56 C4      .YY      -0.00000  -0.00000  -0.08854   0.12788  -0.04789
   57 C4      .ZZ      -0.00000  -0.00000  -0.07987   0.09942  -0.23151
   58 C4      .XY       0.03551   0.00431   0.00000   0.00000   0.00000
   59 C4      .XZ       0.11102  -0.00678   0.00000  -0.00000   0.00000
   60 C4      .YZ      -0.00000   0.00000  -0.04041   0.33574   0.00493
   61 C5      .S       -0.00000   0.00000  -0.04850   0.00842   0.00255
   62 C5      .S       -0.00000  -0.00000  -1.06692   0.17345  -0.04880
   63 C5      .X        0.01291   0.04393  -0.00000   0.00000  -0.00000
   64 C5      .Y        0.00000   0.00000  -0.17207  -0.18025   0.02275
   65 C5      .Z       -0.00000  -0.00000  -0.66537  -0.07021   0.02819
   66 C5      .S        0.00000   0.00000   4.99043  -3.15991   0.76463
   67 C5      .X       -0.02389  -0.21535   0.00000  -0.00000   0.00000
   68 C5      .Y        0.00000  -0.00000   2.51642  -1.42264   0.06093
   69 C5      .Z        0.00000   0.00000   5.64646  -2.38213   0.90223
   70 C5      .XX      -0.00000   0.00000   0.18757  -0.09317   0.02020
   71 C5      .YY       0.00000   0.00000   0.12788  -0.08854   0.01831
   72 C5      .ZZ      -0.00000   0.00000   0.09942  -0.07987   0.02694
   73 C5      .XY      -0.00431  -0.03551   0.00000   0.00000  -0.00000
   74 C5      .XZ      -0.00678   0.11102  -0.00000   0.00000  -0.00000
   75 C5      .YZ       0.00000   0.00000  -0.33574   0.04041   0.01131
   76 H6      .S        0.00000  -0.00000  -0.05377  -0.11678  -0.30806
   77 H6      .S        0.00000   0.00000   0.06081  -0.66146  -0.74036
   78 H7      .S       -0.00000  -0.00000  -0.11678  -0.05377  -0.04516
   79 H7      .S       -0.00000   0.00000  -0.66146   0.06081  -0.22025
   80 H8      .S       -0.00000   0.00000  -0.24485   0.73760   0.05109
   81 H8      .S       -0.00000  -0.00000  -0.78148   2.16642  -0.29037
   82 H9      .S       -0.00000  -0.00000   0.73760  -0.24485   0.05343
   83 H9      .S        0.00000  -0.00000   2.16642  -0.78148   0.20743
                          51        52        53        54        55
                           V         V         V         V         V    
     Eigenvalues --    38.97869  42.66870  42.66870  43.72460  44.02256
    1 O1      .S       -0.00802  -0.00000  -0.00000   0.00000   0.00000
    2 O1      .S       -0.11336   0.00000   0.00000  -0.00000   0.00000
    3 O1      .X       -0.00000   0.06875   0.06875   0.00000   0.01182
    4 O1      .Y       -0.01484   0.00000   0.00000   0.85946   0.00000
    5 O1      .Z       -0.07171   0.00000   0.00000   0.00000  -0.00000
    6 O1      .S        0.44689  -0.00000  -0.00000  -0.00000  -0.00000
    7 O1      .X        0.00000  -0.17211  -0.17211  -0.00000  -0.09311
    8 O1      .Y       -0.37125  -0.00000  -0.00000  -3.49636  -0.00000
    9 O1      .Z       -0.17046   0.00000  -0.00000   0.00000   0.00000
   10 O1      .XX      -0.04547   0.00000  -0.00000   0.00000   0.00000
   11 O1      .YY       0.10702  -0.00000  -0.00000   0.00000   0.00000
   12 O1      .ZZ       0.04911   0.00000  -0.00000   0.00000   0.00000
   13 O1      .XY       0.00000   0.11846  -0.11846   0.00000  -0.00666
   14 O1      .XZ      -0.00000   0.09290   0.09290  -0.00000   0.00416
   15 O1      .YZ       0.16476   0.00000   0.00000   0.45596  -0.00000
   16 C2      .S        0.00615   0.00000  -0.00000   0.02768  -0.00000
   17 C2      .S        0.12547   0.00000   0.00000   0.04019  -0.00000
   18 C2      .X       -0.00000   0.00429   0.56831  -0.00000  -0.00294
   19 C2      .Y        0.00326  -0.00000  -0.00000  -0.31227   0.00000
   20 C2      .Z        0.03952   0.00000   0.00000   0.29739   0.00000
   21 C2      .S       -0.76235   0.00000  -0.00000   1.90567   0.00000
   22 C2      .X        0.00000   0.14758  -0.73505   0.00000   0.04806
   23 C2      .Y        0.44147   0.00000   0.00000  -0.98547  -0.00000
   24 C2      .Z        0.55514   0.00000   0.00000   1.43726  -0.00000
   25 C2      .XX      -0.04297   0.00000  -0.00000   0.10546  -0.00000
   26 C2      .YY      -0.04191   0.00000  -0.00000   0.20008  -0.00000
   27 C2      .ZZ      -0.03678   0.00000   0.00000   0.15472   0.00000
   28 C2      .XY       0.00000  -0.01664  -0.61837  -0.00000  -0.00933
   29 C2      .XZ      -0.00000   0.00150   0.66101  -0.00000  -0.00285
   30 C2      .YZ      -0.01399  -0.00000  -0.00000  -0.07200   0.00000
   31 C3      .S       -0.04218  -0.00000  -0.00000  -0.02768  -0.00000
   32 C3      .S       -1.56694  -0.00000  -0.00000  -0.04019   0.00000
   33 C3      .X       -0.00000   0.56831   0.00429  -0.00000   0.08190
   34 C3      .Y        0.16386   0.00000   0.00000  -0.31227   0.00000
   35 C3      .Z       -0.19225   0.00000  -0.00000  -0.29739  -0.00000
   36 C3      .S        4.42885   0.00000   0.00000  -1.90567  -0.00000
   37 C3      .X        0.00000  -0.73505   0.14758   0.00000   0.32431
   38 C3      .Y       -0.52020   0.00000   0.00000  -0.98547  -0.00000
   39 C3      .Z       -1.61211  -0.00000  -0.00000  -1.43726   0.00000
   40 C3      .XX       0.18914  -0.00000   0.00000  -0.10546  -0.00000
   41 C3      .YY      -0.33936   0.00000  -0.00000  -0.20008  -0.00000
   42 C3      .ZZ       0.20216   0.00000   0.00000  -0.15472  -0.00000
   43 C3      .XY      -0.00000   0.61837   0.01664  -0.00000   0.00319
   44 C3      .XZ       0.00000   0.66101   0.00150   0.00000  -0.08992
   45 C3      .YZ      -0.72285  -0.00000  -0.00000  -0.07200   0.00000
   46 C4      .S        0.00255   0.00000  -0.00000   0.01275  -0.00000
   47 C4      .S       -0.04880  -0.00000  -0.00000   0.13257  -0.00000
   48 C4      .X       -0.00000   0.00913   0.06099   0.00000  -0.02721
   49 C4      .Y       -0.02275  -0.00000   0.00000   0.02475   0.00000
   50 C4      .Z        0.02819   0.00000  -0.00000   0.02071   0.00000
   51 C4      .S        0.76463  -0.00000   0.00000  -0.85795  -0.00000
   52 C4      .X       -0.00000  -0.13338   0.33963   0.00000   0.03789
   53 C4      .Y       -0.06093   0.00000  -0.00000   1.31005  -0.00000
   54 C4      .Z        0.90223  -0.00000   0.00000  -0.34145  -0.00000
   55 C4      .XX       0.02020   0.00000  -0.00000   0.00175   0.00000
   56 C4      .YY       0.01831  -0.00000  -0.00000  -0.01415  -0.00000
   57 C4      .ZZ       0.02694   0.00000  -0.00000  -0.01425   0.00000
   58 C4      .XY       0.00000  -0.00154   0.04247   0.00000   0.11948
   59 C4      .XZ      -0.00000  -0.00841   0.06164  -0.00000   0.00070
   60 C4      .YZ      -0.01131  -0.00000  -0.00000  -0.00019   0.00000
   61 C5      .S        0.02133  -0.00000   0.00000  -0.01275  -0.00000
   62 C5      .S        0.22978   0.00000  -0.00000  -0.13257   0.00000
   63 C5      .X        0.00000   0.06099   0.00913  -0.00000   0.51541
   64 C5      .Y        0.04543   0.00000   0.00000   0.02475   0.00000
   65 C5      .Z       -0.22165  -0.00000  -0.00000  -0.02071  -0.00000
   66 C5      .S       -2.70001   0.00000  -0.00000   0.85795  -0.00000
   67 C5      .X       -0.00000   0.33963  -0.13338  -0.00000  -0.75039
   68 C5      .Y        0.53747   0.00000  -0.00000   1.31005  -0.00000
   69 C5      .Z       -1.78165   0.00000  -0.00000   0.34145   0.00000
   70 C5      .XX      -0.07700  -0.00000   0.00000  -0.00175  -0.00000
   71 C5      .YY      -0.04789  -0.00000   0.00000   0.01415  -0.00000
   72 C5      .ZZ      -0.23151  -0.00000  -0.00000   0.01425  -0.00000
   73 C5      .XY       0.00000  -0.04247   0.00154  -0.00000   0.85880
   74 C5      .XZ       0.00000   0.06164  -0.00841   0.00000  -0.31396
   75 C5      .YZ      -0.00493  -0.00000   0.00000  -0.00019  -0.00000
   76 H6      .S       -0.04516   0.00000  -0.00000  -0.17627   0.00000
   77 H6      .S       -0.22025  -0.00000  -0.00000  -0.15025   0.00000
   78 H7      .S       -0.30806   0.00000  -0.00000   0.17627   0.00000
   79 H7      .S       -0.74036  -0.00000   0.00000   0.15025  -0.00000
   80 H8      .S        0.05343  -0.00000  -0.00000  -0.08892  -0.00000
   81 H8      .S        0.20743  -0.00000   0.00000  -0.33737   0.00000
   82 H9      .S        0.05109  -0.00000  -0.00000   0.08892   0.00000
   83 H9      .S       -0.29037   0.00000  -0.00000   0.33737  -0.00000
                          56        57        58        59        60
                           V         V         V         V         V    
     Eigenvalues --    44.02256  48.03883  48.03883  48.16716  48.16716
    1 O1      .S       -0.00000  -0.00000  -0.00000   0.00000   0.00000
    2 O1      .S        0.00000  -0.00000   0.00000   0.00000  -0.00000
    3 O1      .X       -0.01182  -0.00159   0.00159   0.00092   0.00092
    4 O1      .Y       -0.00000   0.00000   0.00000  -0.00000  -0.00000
    5 O1      .Z        0.00000   0.00000  -0.00000   0.00000  -0.00000
    6 O1      .S        0.00000   0.00000  -0.00000  -0.00000   0.00000
    7 O1      .X        0.09311   0.27835  -0.27835   0.06639   0.06639
    8 O1      .Y        0.00000  -0.00000  -0.00000  -0.00000   0.00000
    9 O1      .Z        0.00000  -0.00000   0.00000   0.00000  -0.00000
   10 O1      .XX      -0.00000  -0.00000   0.00000   0.00000   0.00000
   11 O1      .YY      -0.00000  -0.00000  -0.00000   0.00000   0.00000
   12 O1      .ZZ      -0.00000  -0.00000  -0.00000  -0.00000   0.00000
   13 O1      .XY      -0.00666   0.04343   0.04343   0.00803  -0.00803
   14 O1      .XZ      -0.00416  -0.07692   0.07692  -0.00870  -0.00870
   15 O1      .YZ      -0.00000  -0.00000  -0.00000   0.00000   0.00000
   16 C2      .S        0.00000  -0.00000  -0.00000  -0.00000  -0.00000
   17 C2      .S       -0.00000   0.00000   0.00000  -0.00000  -0.00000
   18 C2      .X       -0.08190   0.38395   0.02914  -0.08659   0.01730
   19 C2      .Y       -0.00000  -0.00000   0.00000  -0.00000  -0.00000
   20 C2      .Z        0.00000   0.00000   0.00000   0.00000  -0.00000
   21 C2      .S        0.00000  -0.00000  -0.00000   0.00000   0.00000
   22 C2      .X       -0.32431  -0.77441  -0.03775  -0.36107   0.04588
   23 C2      .Y       -0.00000   0.00000   0.00000  -0.00000   0.00000
   24 C2      .Z       -0.00000   0.00000   0.00000  -0.00000  -0.00000
   25 C2      .XX       0.00000   0.00000  -0.00000   0.00000  -0.00000
   26 C2      .YY      -0.00000  -0.00000  -0.00000   0.00000   0.00000
   27 C2      .ZZ       0.00000  -0.00000  -0.00000  -0.00000  -0.00000
   28 C2      .XY       0.00319   0.87043  -0.01169   0.06381  -0.00170
   29 C2      .XZ       0.08992   0.47197   0.01062   0.10458  -0.01123
   30 C2      .YZ      -0.00000  -0.00000  -0.00000   0.00000  -0.00000
   31 C3      .S        0.00000   0.00000  -0.00000   0.00000   0.00000
   32 C3      .S       -0.00000  -0.00000  -0.00000  -0.00000  -0.00000
   33 C3      .X        0.00294  -0.02914  -0.38395   0.01730  -0.08659
   34 C3      .Y        0.00000  -0.00000  -0.00000  -0.00000  -0.00000
   35 C3      .Z        0.00000  -0.00000   0.00000   0.00000  -0.00000
   36 C3      .S       -0.00000   0.00000   0.00000  -0.00000  -0.00000
   37 C3      .X       -0.04806   0.03775   0.77441   0.04588  -0.36107
   38 C3      .Y        0.00000   0.00000   0.00000  -0.00000  -0.00000
   39 C3      .Z       -0.00000  -0.00000  -0.00000   0.00000   0.00000
   40 C3      .XX      -0.00000   0.00000  -0.00000   0.00000   0.00000
   41 C3      .YY       0.00000   0.00000   0.00000   0.00000   0.00000
   42 C3      .ZZ      -0.00000  -0.00000  -0.00000   0.00000  -0.00000
   43 C3      .XY      -0.00933  -0.01169   0.87043   0.00170  -0.06381
   44 C3      .XZ       0.00285  -0.01062  -0.47197  -0.01123   0.10458
   45 C3      .YZ       0.00000  -0.00000   0.00000  -0.00000  -0.00000
   46 C4      .S        0.00000  -0.00000  -0.00000   0.00000   0.00000
   47 C4      .S       -0.00000   0.00000  -0.00000   0.00000  -0.00000
   48 C4      .X       -0.51541   0.08018   0.01788  -0.41528  -0.04773
   49 C4      .Y       -0.00000  -0.00000   0.00000   0.00000  -0.00000
   50 C4      .Z        0.00000   0.00000   0.00000  -0.00000   0.00000
   51 C4      .S       -0.00000   0.00000   0.00000  -0.00000  -0.00000
   52 C4      .X        0.75039   0.37893   0.06574   0.82695  -0.33115
   53 C4      .Y        0.00000  -0.00000  -0.00000   0.00000  -0.00000
   54 C4      .Z       -0.00000   0.00000   0.00000  -0.00000  -0.00000
   55 C4      .XX       0.00000  -0.00000  -0.00000  -0.00000   0.00000
   56 C4      .YY       0.00000  -0.00000  -0.00000   0.00000   0.00000
   57 C4      .ZZ       0.00000  -0.00000   0.00000  -0.00000   0.00000
   58 C4      .XY       0.85880   0.00641  -0.01130  -0.53070   0.08385
   59 C4      .XZ       0.31396   0.13179   0.00076   0.82203  -0.02537
   60 C4      .YZ       0.00000   0.00000   0.00000   0.00000   0.00000
   61 C5      .S       -0.00000  -0.00000   0.00000   0.00000  -0.00000
   62 C5      .S        0.00000   0.00000   0.00000  -0.00000   0.00000
   63 C5      .X        0.02721  -0.01788  -0.08018  -0.04773  -0.41528
   64 C5      .Y       -0.00000   0.00000  -0.00000  -0.00000  -0.00000
   65 C5      .Z        0.00000   0.00000   0.00000   0.00000  -0.00000
   66 C5      .S        0.00000  -0.00000  -0.00000   0.00000   0.00000
   67 C5      .X       -0.03789  -0.06574  -0.37893  -0.33115   0.82695
   68 C5      .Y        0.00000  -0.00000  -0.00000  -0.00000  -0.00000
   69 C5      .Z        0.00000  -0.00000  -0.00000   0.00000   0.00000
   70 C5      .XX      -0.00000  -0.00000   0.00000   0.00000  -0.00000
   71 C5      .YY      -0.00000  -0.00000  -0.00000   0.00000  -0.00000
   72 C5      .ZZ      -0.00000  -0.00000   0.00000   0.00000  -0.00000
   73 C5      .XY       0.11948  -0.01130   0.00641  -0.08385   0.53070
   74 C5      .XZ      -0.00070  -0.00076  -0.13179  -0.02537   0.82203
   75 C5      .YZ      -0.00000  -0.00000  -0.00000   0.00000  -0.00000
   76 H6      .S        0.00000   0.00000  -0.00000  -0.00000   0.00000
   77 H6      .S        0.00000  -0.00000  -0.00000   0.00000  -0.00000
   78 H7      .S       -0.00000   0.00000   0.00000  -0.00000  -0.00000
   79 H7      .S        0.00000   0.00000  -0.00000   0.00000  -0.00000
   80 H8      .S       -0.00000   0.00000  -0.00000  -0.00000  -0.00000
   81 H8      .S       -0.00000   0.00000   0.00000  -0.00000   0.00000
   82 H9      .S       -0.00000  -0.00000   0.00000   0.00000   0.00000
   83 H9      .S        0.00000  -0.00000   0.00000  -0.00000   0.00000
                          61        62        63        64        65
                           V         V         V         V         V    
     Eigenvalues --    51.57217  52.93122  52.93122  55.50831  55.89565
    1 O1      .S       -0.00000  -0.01840  -0.01840   0.00000   0.07924
    2 O1      .S       -0.00000  -0.05685  -0.05685  -0.00000   0.11509
    3 O1      .X        0.39851   0.00000   0.00000  -0.00000   0.00000
    4 O1      .Y        0.00000   0.08640  -0.08640  -0.00000   0.10104
    5 O1      .Z        0.00000   0.08650   0.08650  -0.00000   0.03839
    6 O1      .S        0.00000   0.38369   0.38369  -0.00000  -1.76051
    7 O1      .X       -0.69341   0.00000  -0.00000   0.00000  -0.00000
    8 O1      .Y       -0.00000   0.50657  -0.50657   0.00000   0.21206
    9 O1      .Z       -0.00000  -0.15854  -0.15854   0.00000   0.54139
[...]
   41 C3      .YY       0.03593  -0.26368   0.09515  -0.06808  -0.01420
   42 C3      .ZZ      -0.01959  -0.03764  -0.11710  -0.04288  -0.14914
   43 C3      .XY      -0.00000  -0.00000  -0.00000  -0.00000   0.00000
   44 C3      .XZ      -0.00000  -0.00000   0.00000   0.00000   0.00000
   45 C3      .YZ      -0.01162  -0.00679  -0.09384   0.02751  -0.10882
   46 C4      .S        0.02857  -0.00594   0.00318  -0.12545  -0.01701
   47 C4      .S        0.23866  -0.09906  -0.02079   0.61127  -0.12263
   48 C4      .X       -0.00000   0.00000  -0.00000   0.00000  -0.00000
   49 C4      .Y        0.14706   0.06533  -0.10945  -0.09293   0.11078
   50 C4      .Z        0.28617   0.12718   0.10138   0.33241  -0.02279
   51 C4      .S       -1.74633   1.22627   0.37511   0.84013   0.16132
   52 C4      .X        0.00000   0.00000   0.00000  -0.00000   0.00000
   53 C4      .Y        0.96064  -0.26698  -0.23672   0.90780  -0.52886
   54 C4      .Z       -1.14692   0.77333   0.83181  -1.06700   0.57148
   55 C4      .XX       0.00402   0.02230   0.01343  -0.23969  -0.03445
   56 C4      .YY       0.03904   0.01703   0.12797  -0.73451  -0.00057
   57 C4      .ZZ       0.22114   0.06185   0.05901  -0.67363  -0.01073
   58 C4      .XY       0.00000  -0.00000  -0.00000   0.00000   0.00000
   59 C4      .XZ       0.00000  -0.00000  -0.00000   0.00000   0.00000
   60 C4      .YZ       0.17055  -0.02453  -0.12639   1.03615   0.01022
   61 C5      .S        0.01610  -0.00594  -0.12545   0.00318  -0.01701
   62 C5      .S        0.03970  -0.09906   0.61127  -0.02079  -0.12263
   63 C5      .X        0.00000   0.00000  -0.00000  -0.00000   0.00000
   64 C5      .Y        0.07340  -0.06533   0.09293   0.10945  -0.11078
   65 C5      .Z        0.03407   0.12718   0.33241   0.10138  -0.02279
   66 C5      .S        0.93498   1.22627   0.84013   0.37511   0.16132
   67 C5      .X       -0.00000  -0.00000  -0.00000   0.00000  -0.00000
   68 C5      .Y        0.27406   0.26698  -0.90780   0.23672   0.52886
   69 C5      .Z        0.08279   0.77333  -1.06700   0.83181   0.57148
   70 C5      .XX       0.04709   0.02230  -0.23969   0.01343  -0.03445
   71 C5      .YY       0.03953   0.01703  -0.73451   0.12797  -0.00057
   72 C5      .ZZ       0.03231   0.06185  -0.67363   0.05901  -0.01073
   73 C5      .XY       0.00000  -0.00000  -0.00000  -0.00000  -0.00000
   74 C5      .XZ      -0.00000  -0.00000   0.00000   0.00000  -0.00000
   75 C5      .YZ       0.01507   0.02453  -1.03615   0.12639  -0.01022
   76 H6      .S       -0.10387  -0.12941   0.03977   0.03304  -0.02080
   77 H6      .S        0.45537  -0.73761   0.07331   0.22999  -0.10598
   78 H7      .S       -0.07964  -0.12941   0.03304   0.03977  -0.02080
   79 H7      .S       -0.24678  -0.73761   0.22999   0.07331  -0.10598
   80 H8      .S       -0.10442   0.02037   0.05554   0.29587   0.08292
   81 H8      .S       -0.46005   0.20527   0.40816  -1.02383   0.35640
   82 H9      .S       -0.02992   0.02037   0.29587   0.05554   0.08292
   83 H9      .S       -0.04138   0.20527  -1.02383   0.40816   0.35640
                          71        72        73        74        75
                           V         V         V         V         V    
     Eigenvalues --  27211.395227211.395227211.395227211.395227211.3952
    1 O1      .S        0.07714   0.07714  -0.07631  -0.03055  -0.03055
    2 O1      .S        0.26913   0.26913  -0.86225  -0.10008  -0.10008
    3 O1      .X        0.00000   0.00000  -0.00000  -0.00000  -0.00000
    4 O1      .Y        0.06914  -0.06914   0.00000   0.00989  -0.00989
    5 O1      .Z        0.03070   0.03070  -0.03811   0.01290   0.01290
    6 O1      .S       -1.99533  -1.99533   2.75543   0.68492   0.68492
    7 O1      .X       -0.00000  -0.00000  -0.00000   0.00000  -0.00000
    8 O1      .Y        0.99365  -0.99365   0.00000  -0.07159   0.07159
    9 O1      .Z        0.56877   0.56877  -0.83203  -0.26537  -0.26537
   10 O1      .XX       0.23997   0.23997  -1.25528  -0.08486  -0.08486
   11 O1      .YY       0.04475   0.04475   0.85844  -0.09106  -0.09106
   12 O1      .ZZ       0.13444   0.13444   0.00457  -0.04906  -0.04906
   13 O1      .XY      -0.00000   0.00000  -0.00000  -0.00000   0.00000
   14 O1      .XZ       0.00000  -0.00000   0.00000   0.00000  -0.00000
   15 O1      .YZ      -0.15265   0.15265  -0.00000   0.00750  -0.00750
   16 C2      .S        0.02686  -0.18272  -0.03162  -0.00934  -0.00134
   17 C2      .S        0.21930  -0.18648  -0.08649   0.04128   0.00121
   18 C2      .X        0.00000  -0.00000  -0.00000  -0.00000   0.00000
   19 C2      .Y       -0.07508  -0.22763   0.40204   0.15319   0.03333
   20 C2      .Z        0.03078  -0.03290  -0.29796   0.17453  -0.01009
   21 C2      .S       -1.35791   5.54836  -0.49767  -1.00319  -0.11270
   22 C2      .X        0.00000   0.00000   0.00000  -0.00000  -0.00000
   23 C2      .Y        0.88601  -1.79153   0.35603   0.43667   0.35817
   24 C2      .Z        0.28125  -0.84711  -0.30729   0.58603  -0.00083
   25 C2      .XX       0.03430  -1.48954  -0.05824  -0.04681  -0.00680
   26 C2      .YY      -0.00912   0.05578  -0.25929  -0.09564  -0.03149
   27 C2      .ZZ      -0.01134   0.32463  -0.26473  -0.15793  -0.03134
   28 C2      .XY       0.00000   0.00000  -0.00000  -0.00000  -0.00000
   29 C2      .XZ       0.00000   0.00000   0.00000   0.00000   0.00000
   30 C2      .YZ       0.00650  -0.24527   0.15399  -0.15301   0.00556
   31 C3      .S       -0.18272   0.02686  -0.03162  -0.00134  -0.00934
   32 C3      .S       -0.18648   0.21930  -0.08649   0.00121   0.04128
   33 C3      .X       -0.00000  -0.00000   0.00000   0.00000   0.00000
   34 C3      .Y        0.22763   0.07508  -0.40204  -0.03333  -0.15319
   35 C3      .Z       -0.03290   0.03078  -0.29796  -0.01009   0.17453
   36 C3      .S        5.54836  -1.35791  -0.49767  -0.11270  -1.00319
   37 C3      .X        0.00000   0.00000  -0.00000  -0.00000  -0.00000
   38 C3      .Y        1.79153  -0.88601  -0.35603  -0.35817  -0.43667
   39 C3      .Z       -0.84711   0.28125  -0.30729  -0.00083   0.58603
   40 C3      .XX      -1.48954   0.03430  -0.05824  -0.00680  -0.04681
   41 C3      .YY       0.05578  -0.00912  -0.25929  -0.03149  -0.09564
   42 C3      .ZZ       0.32463  -0.01134  -0.26473  -0.03134  -0.15793
   43 C3      .XY      -0.00000   0.00000   0.00000  -0.00000  -0.00000
   44 C3      .XZ       0.00000   0.00000  -0.00000  -0.00000   0.00000
   45 C3      .YZ       0.24527  -0.00650  -0.15399  -0.00556   0.15301
   46 C4      .S       -0.00225   0.02334   0.00614  -0.09668   0.00156
   47 C4      .S       -0.06784   0.27475   0.03244   0.66162  -0.06638
   48 C4      .X       -0.00000   0.00000  -0.00000  -0.00000   0.00000
   49 C4      .Y       -0.05138  -0.11334   0.01733   0.24916  -0.43631
   50 C4      .Z       -0.00357  -0.24262   0.04861   0.09126   0.00845
   51 C4      .S        1.58189  -3.58424  -0.09509   0.61099   0.58736
   52 C4      .X       -0.00000  -0.00000   0.00000   0.00000  -0.00000
   53 C4      .Y       -0.65769   0.59197  -0.08432   0.60295  -0.48551
   54 C4      .Z        0.89806  -2.00971  -0.02571   0.80903  -0.08885
   55 C4      .XX       0.01777   0.01313   0.01595  -0.09593   0.04587
   56 C4      .YY       0.04091  -0.09172   0.00819  -1.64281   0.46365
   57 C4      .ZZ       0.01887  -0.20188   0.02059   0.47472   0.05466
   58 C4      .XY      -0.00000  -0.00000   0.00000  -0.00000   0.00000
   59 C4      .XZ      -0.00000   0.00000   0.00000   0.00000  -0.00000
   60 C4      .YZ       0.00793  -0.07335   0.02520  -0.15439   0.02887
   61 C5      .S        0.02334  -0.00225   0.00614   0.00156  -0.09668
   62 C5      .S        0.27475  -0.06784   0.03244  -0.06638   0.66162
   63 C5      .X       -0.00000  -0.00000   0.00000  -0.00000   0.00000
   64 C5      .Y        0.11334   0.05138  -0.01733   0.43631  -0.24916
   65 C5      .Z       -0.24262  -0.00357   0.04861   0.00845   0.09126
   66 C5      .S       -3.58424   1.58189  -0.09509   0.58736   0.61099
   67 C5      .X        0.00000   0.00000  -0.00000   0.00000   0.00000
   68 C5      .Y       -0.59197   0.65769   0.08432   0.48551  -0.60295
   69 C5      .Z       -2.00971   0.89806  -0.02571  -0.08885   0.80903
   70 C5      .XX       0.01313   0.01777   0.01595   0.04587  -0.09593
   71 C5      .YY      -0.09172   0.04091   0.00819   0.46365  -1.64281
   72 C5      .ZZ      -0.20188   0.01887   0.02059   0.05466   0.47472
   73 C5      .XY      -0.00000  -0.00000  -0.00000  -0.00000   0.00000
   74 C5      .XZ       0.00000   0.00000  -0.00000   0.00000  -0.00000
   75 C5      .YZ       0.07335  -0.00793  -0.02520  -0.02887   0.15439
   76 H6      .S       -0.01756  -0.20554   0.06093   0.01528  -0.03147
   77 H6      .S       -0.28527   0.03415  -0.01784  -0.27013  -0.13040
   78 H7      .S       -0.20554  -0.01756   0.06093  -0.03147   0.01528
   79 H7      .S        0.03415  -0.28527  -0.01784  -0.13040  -0.27013
   80 H8      .S        0.05798  -0.00122   0.02148  -0.03114  -0.03431
   81 H8      .S        0.27214  -0.46302  -0.01631   0.00541   0.06860
   82 H9      .S       -0.00122   0.05798   0.02148  -0.03431  -0.03114
   83 H9      .S       -0.46302   0.27214  -0.01631   0.06860   0.00541
                          76        77        78        79        80
                           V         V         V         V         V    
     Eigenvalues --  27211.395227211.395227211.395227211.395227211.3952
    1 O1      .S        0.00156   0.00156   0.00000   0.54871  -0.00830
    2 O1      .S        0.00616   0.00616   0.00000   1.54954   0.01197
    3 O1      .X        0.00000  -0.00000   0.00000   0.00000   0.00000
    4 O1      .Y       -0.01145   0.01145  -0.16863  -0.00000  -0.02325
    5 O1      .Z        0.01458   0.01458  -0.00000  -0.30867   0.00055
    6 O1      .S       -0.15243  -0.15243  -0.00000  -9.25257   0.29989
    7 O1      .X       -0.00000   0.00000  -0.00000  -0.00000  -0.00000
    8 O1      .Y       -0.10166   0.10166  -0.87339   0.00000  -0.26734
    9 O1      .Z        0.13202   0.13202   0.00000   1.94817  -0.12005
   10 O1      .XX      -0.00686  -0.00686   0.00000   1.78818  -0.00675
   11 O1      .YY      -0.01812  -0.01812   0.00000   1.83166  -0.02931
   12 O1      .ZZ      -0.01153  -0.01153   0.00000   1.81453  -0.02745
   13 O1      .XY       0.00000   0.00000  -0.00000  -0.00000   0.00000
   14 O1      .XZ       0.00000  -0.00000   0.00000   0.00000   0.00000
   15 O1      .YZ       0.02806  -0.02806   1.42727  -0.00000   0.01890
   16 C2      .S        0.01661  -0.00504   0.02223   0.02900   0.00310
   17 C2      .S       -0.06974  -0.00004   0.02135  -0.15919  -0.09664
   18 C2      .X       -0.00000   0.00000  -0.00000   0.00000   0.00000
   19 C2      .Y       -0.17182   0.00160  -0.40718  -0.15236   0.02340
   20 C2      .Z       -0.57038   0.05683   0.25674   0.06154  -0.08290
   21 C2      .S        2.12285  -0.47725   1.27383   2.47308   1.61534
   22 C2      .X       -0.00000   0.00000   0.00000  -0.00000  -0.00000
   23 C2      .Y       -0.77912   0.18985  -0.98097  -1.95318  -1.00578
   24 C2      .Z       -1.03920   0.05436  -0.41322   0.22534  -0.46464
   25 C2      .XX       0.07099  -0.01665   0.04928   0.13482   0.03233
   26 C2      .YY       0.16636  -0.00252   0.34543   0.05347   0.03405
   27 C2      .ZZ       0.50034  -0.02600   0.20345   0.08145   0.04139
   28 C2      .XY       0.00000  -0.00000   0.00000   0.00000  -0.00000
   29 C2      .XZ       0.00000  -0.00000  -0.00000  -0.00000  -0.00000
   30 C2      .YZ       0.11653   0.00620  -0.22538   0.05781  -0.00149
   31 C3      .S       -0.00504   0.01661  -0.02223   0.02900   0.01136
   32 C3      .S       -0.00004  -0.06974  -0.02135  -0.15919   0.35695
   33 C3      .X        0.00000  -0.00000  -0.00000   0.00000  -0.00000
   34 C3      .Y       -0.00160   0.17182  -0.40718   0.15236   0.05920
   35 C3      .Z        0.05683  -0.57038  -0.25674   0.06154  -0.15142
   36 C3      .S       -0.47725   2.12285  -1.27383   2.47308  -3.39319
   37 C3      .X        0.00000  -0.00000   0.00000   0.00000   0.00000
   38 C3      .Y       -0.18985   0.77912  -0.98097   1.95318  -1.80261
   39 C3      .Z        0.05436  -1.03920   0.41322   0.22534   1.40897
   40 C3      .XX      -0.01665   0.07099  -0.04928   0.13482  -0.00873
   41 C3      .YY      -0.00252   0.16636  -0.34543   0.05347  -0.05299
   42 C3      .ZZ      -0.02600   0.50034  -0.20345   0.08145   0.08345
   43 C3      .XY       0.00000  -0.00000   0.00000   0.00000   0.00000
   44 C3      .XZ      -0.00000   0.00000   0.00000  -0.00000  -0.00000
   45 C3      .YZ      -0.00620  -0.11653  -0.22538  -0.05781  -0.02945
   46 C4      .S       -0.03043  -0.01129   0.01842  -0.00286   0.02997
   47 C4      .S        1.34723  -0.12679   0.16407   0.03788   0.34509
   48 C4      .X        0.00000  -0.00000   0.00000  -0.00000   0.00000
   49 C4      .Y       -0.04070  -0.16079  -0.00620  -0.10980   0.04144
   50 C4      .Z       -0.22204  -0.03121  -0.02743  -0.10373   0.01112
   51 C4      .S       -3.38377   1.37753  -1.82327  -0.59596  -4.20707
   52 C4      .X       -0.00000  -0.00000  -0.00000  -0.00000   0.00000
   53 C4      .Y        0.61345  -0.74787   0.82076   0.56779   2.10663
   54 C4      .Z       -1.81097   0.61154  -0.95786  -0.63558  -1.57678
   55 C4      .XX       0.59610   0.00083   0.00824  -0.02725   0.01637
   56 C4      .YY      -0.56804   0.13331  -0.04151  -0.01623  -0.03557
   57 C4      .ZZ      -1.45373   0.05770  -0.04183  -0.00301  -0.02635
   58 C4      .XY       0.00000  -0.00000   0.00000   0.00000  -0.00000
   59 C4      .XZ       0.00000   0.00000  -0.00000  -0.00000  -0.00000
   60 C4      .YZ      -0.37534   0.02225  -0.00060  -0.00291   0.02864
   61 C5      .S       -0.01129  -0.03043  -0.01842  -0.00286  -0.50379
   62 C5      .S       -0.12679   1.34723  -0.16407   0.03788   1.98855
   63 C5      .X        0.00000  -0.00000  -0.00000  -0.00000  -0.00000
   64 C5      .Y        0.16079   0.04070  -0.00620   0.10980  -0.07298
   65 C5      .Z       -0.03121  -0.22204   0.02743  -0.10373  -0.16439
   66 C5      .S        1.37753  -3.38377   1.82327  -0.59596   7.01786
   67 C5      .X       -0.00000   0.00000   0.00000   0.00000  -0.00000
   68 C5      .Y        0.74787  -0.61345   0.82076  -0.56779   2.28073
   69 C5      .Z        0.61154  -1.81097   0.95786  -0.63558   2.53179
   70 C5      .XX       0.00083   0.59610  -0.00824  -0.02725  -2.07873
   71 C5      .YY       0.13331  -0.56804   0.04151  -0.01623  -1.29964
   72 C5      .ZZ       0.05770  -1.45373   0.04183  -0.00301  -1.69603
   73 C5      .XY       0.00000  -0.00000   0.00000  -0.00000  -0.00000
   74 C5      .XZ       0.00000  -0.00000  -0.00000  -0.00000  -0.00000
   75 C5      .YZ      -0.02225   0.37534  -0.00060   0.00291   0.23193
   76 H6      .S       -0.02840  -0.00297   0.04159   0.02063   0.03485
   77 H6      .S        0.31779  -0.00601   0.37951   0.44602   0.28246
   78 H7      .S       -0.00297  -0.02840  -0.04159   0.02063  -0.05943
   79 H7      .S       -0.00601   0.31779  -0.37951   0.44602  -0.62161
   80 H8      .S        0.21609   0.02368  -0.04525  -0.08327  -0.04782
   81 H8      .S       -0.47662   0.22768  -0.35829  -0.24538  -0.67900
   82 H9      .S        0.02368   0.21609   0.04525  -0.08327   0.11757
   83 H9      .S        0.22768  -0.47662   0.35829  -0.24538   0.49070
                          81        82        83
                           V         V         V    
     Eigenvalues --  27211.395227211.395227211.3952
    1 O1      .S       -0.00830  -0.00281  -0.00281
    2 O1      .S        0.01197   0.02976   0.02976
    3 O1      .X       -0.00000   0.00000   0.00000
    4 O1      .Y        0.02325   0.07777  -0.07777
    5 O1      .Z        0.00055  -0.08104  -0.08104
    6 O1      .S        0.29989  -0.09893  -0.09893
    7 O1      .X        0.00000  -0.00000  -0.00000
    8 O1      .Y        0.26734   0.08998  -0.08998
    9 O1      .Z       -0.12005  -0.16431  -0.16431
   10 O1      .XX      -0.00675  -0.01298  -0.01298
   11 O1      .YY      -0.02931   0.14724   0.14724
   12 O1      .ZZ      -0.02745   0.12062   0.12062
   13 O1      .XY       0.00000   0.00000   0.00000
   14 O1      .XZ      -0.00000   0.00000  -0.00000
   15 O1      .YZ      -0.01890  -0.09313   0.09313
   16 C2      .S        0.01136  -0.45386   0.00617
   17 C2      .S        0.35695   2.83477   0.11516
   18 C2      .X       -0.00000  -0.00000  -0.00000
   19 C2      .Y       -0.05920   0.09578  -0.00210
   20 C2      .Z       -0.15142   0.01489   0.01395
   21 C2      .S       -3.39319   2.72772  -1.09252
   22 C2      .X       -0.00000  -0.00000   0.00000
   23 C2      .Y        1.80261  -0.34549   0.64470
   24 C2      .Z        1.40897  -0.59871   0.59812
   25 C2      .XX      -0.00873  -1.41965  -0.00552
   26 C2      .YY      -0.05299  -2.04000  -0.04026
   27 C2      .ZZ       0.08345  -2.03786  -0.02947
   28 C2      .XY      -0.00000  -0.00000   0.00000
   29 C2      .XZ      -0.00000  -0.00000   0.00000
   30 C2      .YZ       0.02945  -0.09317   0.00063
   31 C3      .S        0.00310   0.00617  -0.45386
   32 C3      .S       -0.09664   0.11516   2.83477
   33 C3      .X        0.00000   0.00000  -0.00000
   34 C3      .Y       -0.02340   0.00210  -0.09578
   35 C3      .Z       -0.08290   0.01395   0.01489
   36 C3      .S        1.61534  -1.09252   2.72772
   37 C3      .X       -0.00000  -0.00000   0.00000
   38 C3      .Y        1.00578  -0.64470   0.34549
   39 C3      .Z       -0.46464   0.59812  -0.59871
   40 C3      .XX       0.03233  -0.00552  -1.41965
   41 C3      .YY       0.03405  -0.04026  -2.04000
   42 C3      .ZZ       0.04139  -0.02947  -2.03786
   43 C3      .XY       0.00000  -0.00000  -0.00000
   44 C3      .XZ      -0.00000   0.00000   0.00000
   45 C3      .YZ       0.00149  -0.00063   0.09317
   46 C4      .S       -0.50379   0.03510  -0.01575
   47 C4      .S        1.98855   0.30506  -0.12209
   48 C4      .X       -0.00000   0.00000  -0.00000
   49 C4      .Y        0.07298   0.08059   0.01351
   50 C4      .Z       -0.16439   0.37605  -0.03374
   51 C4      .S        7.01786  -2.33357   1.64995
   52 C4      .X        0.00000  -0.00000   0.00000
   53 C4      .Y       -2.28073   0.38394  -0.57135
   54 C4      .Z        2.53179  -1.26997   1.05058
   55 C4      .XX      -2.07873   0.07568  -0.01823
   56 C4      .YY      -1.29964   0.08184  -0.01809
   57 C4      .ZZ      -1.69603   0.26112   0.00143
   58 C4      .XY       0.00000   0.00000  -0.00000
   59 C4      .XZ       0.00000   0.00000   0.00000
   60 C4      .YZ      -0.23193   0.04399   0.00973
   61 C5      .S        0.02997  -0.01575   0.03510
   62 C5      .S        0.34509  -0.12209   0.30506
   63 C5      .X        0.00000  -0.00000  -0.00000
   64 C5      .Y       -0.04144  -0.01351  -0.08059
   65 C5      .Z        0.01112  -0.03374   0.37605
   66 C5      .S       -4.20707   1.64995  -2.33357
   67 C5      .X       -0.00000   0.00000   0.00000
   68 C5      .Y       -2.10663   0.57135  -0.38394
   69 C5      .Z       -1.57678   1.05058  -1.26997
   70 C5      .XX       0.01637  -0.01823   0.07568
   71 C5      .YY      -0.03557  -0.01809   0.08184
   72 C5      .ZZ      -0.02635   0.00143   0.26112
   73 C5      .XY       0.00000  -0.00000  -0.00000
   74 C5      .XZ       0.00000   0.00000   0.00000
   75 C5      .YZ      -0.02864  -0.00973  -0.04399
   76 H6      .S       -0.05943   0.32286  -0.03205
   77 H6      .S       -0.62161  -0.36859  -0.26462
   78 H7      .S        0.03485  -0.03205   0.32286
   79 H7      .S        0.28246  -0.26462  -0.36859
   80 H8      .S        0.11757  -0.02077   0.05029
   81 H8      .S        0.49070  -0.29250   0.34865
   82 H9      .S       -0.04782   0.05029  -0.02077
   83 H9      .S       -0.67900   0.34865  -0.29250
