 Entering Gaussian System, Link 0=g09
 Initial command:
 /home/Andriy.Zhugayevych/local/gaussian/g09/l1.exe "/scr/82014.mgmt.skoltech.ru/furan_molec_CAM-B3LYPp2p_mgf/Gau-5803.inp" -scrdir="/scr/82014.mgmt.skoltech.ru/furan_molec_CAM-B3LYPp2p_mgf/"
 Entering Link 1 = /home/Andriy.Zhugayevych/local/gaussian/g09/l1.exe PID=      5811.
  
 Copyright (c) 1988,1990,1992,1993,1995,1998,2003,2009,2013,
            Gaussian, Inc.  All Rights Reserved.
  
 This is part of the Gaussian(R) 09 program.  It is based on
 the Gaussian(R) 03 system (copyright 2003, Gaussian, Inc.),
 the Gaussian(R) 98 system (copyright 1998, Gaussian, Inc.),
 the Gaussian(R) 94 system (copyright 1995, Gaussian, Inc.),
 the Gaussian 92(TM) system (copyright 1992, Gaussian, Inc.),
 the Gaussian 90(TM) system (copyright 1990, Gaussian, Inc.),
 the Gaussian 88(TM) system (copyright 1988, Gaussian, Inc.),
 the Gaussian 86(TM) system (copyright 1986, Carnegie Mellon
 University), and the Gaussian 82(TM) system (copyright 1983,
 Carnegie Mellon University). Gaussian is a federally registered
 trademark of Gaussian, Inc.
  
 This software contains proprietary and confidential information,
 including trade secrets, belonging to Gaussian, Inc.
  
 This software is provided under written license and may be
 used, copied, transmitted, or stored only in accord with that
 written license.
  
 The following legend is applicable only to US Government
 contracts under FAR:
  
                    RESTRICTED RIGHTS LEGEND
  
 Use, reproduction and disclosure by the US Government is
 subject to restrictions as set forth in subparagraphs (a)
 and (c) of the Commercial Computer Software - Restricted
 Rights clause in FAR 52.227-19.
  
 Gaussian, Inc.
 340 Quinnipiac St., Bldg. 40, Wallingford CT 06492
  
  
 ---------------------------------------------------------------
 Warning -- This program may not be used in any manner that
 competes with the business of Gaussian, Inc. or will provide
 assistance to any competitor of Gaussian, Inc.  The licensee
 of this program is prohibited from giving any competitor of
 Gaussian, Inc. access to this program.  By using this program,
 the user acknowledges that Gaussian, Inc. is engaged in the
 business of creating and licensing software in the field of
 computational chemistry and represents and warrants to the
 licensee that it is not a competitor of Gaussian, Inc. and that
 it will not use this program in any manner prohibited above.
 ---------------------------------------------------------------
  

 Cite this work as:
 Gaussian 09, Revision D.01,
 M. J. Frisch, G. W. Trucks, H. B. Schlegel, G. E. Scuseria, 
 M. A. Robb, J. R. Cheeseman, G. Scalmani, V. Barone, B. Mennucci, 
 G. A. Petersson, H. Nakatsuji, M. Caricato, X. Li, H. P. Hratchian, 
 A. F. Izmaylov, J. Bloino, G. Zheng, J. L. Sonnenberg, M. Hada, 
 M. Ehara, K. Toyota, R. Fukuda, J. Hasegawa, M. Ishida, T. Nakajima, 
 Y. Honda, O. Kitao, H. Nakai, T. Vreven, J. A. Montgomery, Jr., 
 J. E. Peralta, F. Ogliaro, M. Bearpark, J. J. Heyd, E. Brothers, 
 K. N. Kudin, V. N. Staroverov, T. Keith, R. Kobayashi, J. Normand, 
 K. Raghavachari, A. Rendell, J. C. Burant, S. S. Iyengar, J. Tomasi, 
 M. Cossi, N. Rega, J. M. Millam, M. Klene, J. E. Knox, J. B. Cross, 
 V. Bakken, C. Adamo, J. Jaramillo, R. Gomperts, R. E. Stratmann, 
 O. Yazyev, A. J. Austin, R. Cammi, C. Pomelli, J. W. Ochterski, 
 R. L. Martin, K. Morokuma, V. G. Zakrzewski, G. A. Voth, 
 P. Salvador, J. J. Dannenberg, S. Dapprich, A. D. Daniels, 
 O. Farkas, J. B. Foresman, J. V. Ortiz, J. Cioslowski, 
 and D. J. Fox, Gaussian, Inc., Wallingford CT, 2013.
 
 ******************************************
 Gaussian 09:  ES64L-G09RevD.01 24-Apr-2013
                 5-Oct-2016 
 ******************************************
 %nprocshared=8
 Will use up to    8 processors via shared memory.
 %mem=24GB
 ---------------------------------------------
 #T CAM-B3LYP 6-31G* gfprint pop(full) Density
 ---------------------------------------------


 Symbolic Z-matrix:
 Charge =  0 Multiplicity = 1
 O                     0.        1.37634   0. 
 C                     1.0895    0.56802   0. 
 C                    -1.0895    0.56802   0. 
 C                     0.71633  -0.73372   0. 
 C                    -0.71633  -0.73372   0. 
 H                     2.04488   1.06902   0. 
 H                    -2.04488   1.06902   0. 
 H                     1.37287  -1.5915    0. 
 H                    -1.37287  -1.5915    0. 
 
                    Distance matrix (angstroms):
                    1          2          3          4          5
     1  O    0.000000
     2  C    1.356610   0.000000
     3  C    1.356610   2.179004   0.000000
     4  C    2.228334   1.354172   2.226110   0.000000
     5  C    2.228334   2.226110   1.354172   1.432666   0.000000
     6  H    2.067841   1.078766   3.174165   2.239393   3.297594
     7  H    2.067841   3.174165   1.078766   3.297594   2.239393
     8  H    3.269995   2.178037   3.275185   1.080204   2.258446
     9  H    3.269995   3.275185   2.178037   2.258446   1.080204
                    6          7          8          9
     6  H    0.000000
     7  H    4.089752   0.000000
     8  H    2.744076   4.331209   0.000000
     9  H    4.331209   2.744076   2.745746   0.000000
 Framework group  C2V[C2(O),SGV(C4H4)]
 Deg. of freedom     8
                         Standard orientation:                         
 ---------------------------------------------------------------------
 Center     Atomic      Atomic             Coordinates (Angstroms)
 Number     Number       Type             X           Y           Z
 ---------------------------------------------------------------------
      1          8           0        0.000000    0.000000    1.154745
      2          6           0        0.000000    1.089502    0.346428
      3          6           0        0.000000   -1.089502    0.346428
      4          6           0        0.000000    0.716333   -0.955312
      5          6           0        0.000000   -0.716333   -0.955312
      6          1           0        0.000000    2.044876    0.847423
      7          1           0        0.000000   -2.044876    0.847423
      8          1           0        0.000000    1.372873   -1.813097
      9          1           0        0.000000   -1.372873   -1.813097
 ---------------------------------------------------------------------
 Rotational constants (GHZ):      9.5298652      9.3361652      4.7160104
 AO basis set (Overlap normalization):
 Atom O1       Shell     1 S   6     bf    1 -     1          0.000000000000          0.000000000000          2.182151593349
      0.5484671660D+04  0.1831074430D-02
      0.8252349460D+03  0.1395017220D-01
      0.1880469580D+03  0.6844507810D-01
      0.5296450000D+02  0.2327143360D+00
      0.1689757040D+02  0.4701928980D+00
      0.5799635340D+01  0.3585208530D+00
 Atom O1       Shell     2 SP   3    bf    2 -     5          0.000000000000          0.000000000000          2.182151593349
      0.1553961625D+02 -0.1107775495D+00  0.7087426823D-01
      0.3599933586D+01 -0.1480262627D+00  0.3397528391D+00
      0.1013761750D+01  0.1130767015D+01  0.7271585773D+00
 Atom O1       Shell     3 SP   1    bf    6 -     9          0.000000000000          0.000000000000          2.182151593349
      0.2700058226D+00  0.1000000000D+01  0.1000000000D+01
 Atom O1       Shell     4 D   1     bf   10 -    15          0.000000000000          0.000000000000          2.182151593349
      0.8000000000D+00  0.1000000000D+01
 Atom C2       Shell     5 S   6     bf   16 -    16          0.000000000000          2.058860401231          0.654653834794
      0.3047524880D+04  0.1834737132D-02
      0.4573695180D+03  0.1403732281D-01
      0.1039486850D+03  0.6884262226D-01
      0.2921015530D+02  0.2321844432D+00
      0.9286662960D+01  0.4679413484D+00
      0.3163926960D+01  0.3623119853D+00
 Atom C2       Shell     6 SP   3    bf   17 -    20          0.000000000000          2.058860401231          0.654653834794
      0.7868272350D+01 -0.1193324198D+00  0.6899906659D-01
      0.1881288540D+01 -0.1608541517D+00  0.3164239610D+00
      0.5442492580D+00  0.1143456438D+01  0.7443082909D+00
 Atom C2       Shell     7 SP   1    bf   21 -    24          0.000000000000          2.058860401231          0.654653834794
      0.1687144782D+00  0.1000000000D+01  0.1000000000D+01
 Atom C2       Shell     8 D   1     bf   25 -    30          0.000000000000          2.058860401231          0.654653834794
      0.8000000000D+00  0.1000000000D+01
 Atom C3       Shell     9 S   6     bf   31 -    31          0.000000000000         -2.058860401231          0.654653834794
      0.3047524880D+04  0.1834737132D-02
      0.4573695180D+03  0.1403732281D-01
      0.1039486850D+03  0.6884262226D-01
      0.2921015530D+02  0.2321844432D+00
      0.9286662960D+01  0.4679413484D+00
      0.3163926960D+01  0.3623119853D+00
 Atom C3       Shell    10 SP   3    bf   32 -    35          0.000000000000         -2.058860401231          0.654653834794
      0.7868272350D+01 -0.1193324198D+00  0.6899906659D-01
      0.1881288540D+01 -0.1608541517D+00  0.3164239610D+00
      0.5442492580D+00  0.1143456438D+01  0.7443082909D+00
 Atom C3       Shell    11 SP   1    bf   36 -    39          0.000000000000         -2.058860401231          0.654653834794
      0.1687144782D+00  0.1000000000D+01  0.1000000000D+01
 Atom C3       Shell    12 D   1     bf   40 -    45          0.000000000000         -2.058860401231          0.654653834794
      0.8000000000D+00  0.1000000000D+01
 Atom C4       Shell    13 S   6     bf   46 -    46          0.000000000000          1.353673189948         -1.805278261429
      0.3047524880D+04  0.1834737132D-02
      0.4573695180D+03  0.1403732281D-01
      0.1039486850D+03  0.6884262226D-01
      0.2921015530D+02  0.2321844432D+00
      0.9286662960D+01  0.4679413484D+00
      0.3163926960D+01  0.3623119853D+00
 Atom C4       Shell    14 SP   3    bf   47 -    50          0.000000000000          1.353673189948         -1.805278261429
      0.7868272350D+01 -0.1193324198D+00  0.6899906659D-01
      0.1881288540D+01 -0.1608541517D+00  0.3164239610D+00
      0.5442492580D+00  0.1143456438D+01  0.7443082909D+00
 Atom C4       Shell    15 SP   1    bf   51 -    54          0.000000000000          1.353673189948         -1.805278261429
      0.1687144782D+00  0.1000000000D+01  0.1000000000D+01
 Atom C4       Shell    16 D   1     bf   55 -    60          0.000000000000          1.353673189948         -1.805278261429
      0.8000000000D+00  0.1000000000D+01
 Atom C5       Shell    17 S   6     bf   61 -    61          0.000000000000         -1.353673189948         -1.805278261429
      0.3047524880D+04  0.1834737132D-02
      0.4573695180D+03  0.1403732281D-01
      0.1039486850D+03  0.6884262226D-01
      0.2921015530D+02  0.2321844432D+00
      0.9286662960D+01  0.4679413484D+00
      0.3163926960D+01  0.3623119853D+00
 Atom C5       Shell    18 SP   3    bf   62 -    65          0.000000000000         -1.353673189948         -1.805278261429
      0.7868272350D+01 -0.1193324198D+00  0.6899906659D-01
      0.1881288540D+01 -0.1608541517D+00  0.3164239610D+00
      0.5442492580D+00  0.1143456438D+01  0.7443082909D+00
 Atom C5       Shell    19 SP   1    bf   66 -    69          0.000000000000         -1.353673189948         -1.805278261429
      0.1687144782D+00  0.1000000000D+01  0.1000000000D+01
 Atom C5       Shell    20 D   1     bf   70 -    75          0.000000000000         -1.353673189948         -1.805278261429
      0.8000000000D+00  0.1000000000D+01
 Atom H6       Shell    21 S   3     bf   76 -    76          0.000000000000          3.864255615711          1.601397178739
      0.1873113696D+02  0.3349460434D-01
      0.2825394365D+01  0.2347269535D+00
      0.6401216923D+00  0.8137573261D+00
 Atom H6       Shell    22 S   1     bf   77 -    77          0.000000000000          3.864255615711          1.601397178739
      0.1612777588D+00  0.1000000000D+01
 Atom H7       Shell    23 S   3     bf   78 -    78          0.000000000000         -3.864255615711          1.601397178739
      0.1873113696D+02  0.3349460434D-01
      0.2825394365D+01  0.2347269535D+00
      0.6401216923D+00  0.8137573261D+00
 Atom H7       Shell    24 S   1     bf   79 -    79          0.000000000000         -3.864255615711          1.601397178739
      0.1612777588D+00  0.1000000000D+01
 Atom H8       Shell    25 S   3     bf   80 -    80          0.000000000000          2.594353985233         -3.426256992326
      0.1873113696D+02  0.3349460434D-01
      0.2825394365D+01  0.2347269535D+00
      0.6401216923D+00  0.8137573261D+00
 Atom H8       Shell    26 S   1     bf   81 -    81          0.000000000000          2.594353985233         -3.426256992326
      0.1612777588D+00  0.1000000000D+01
 Atom H9       Shell    27 S   3     bf   82 -    82          0.000000000000         -2.594353985233         -3.426256992326
      0.1873113696D+02  0.3349460434D-01
      0.2825394365D+01  0.2347269535D+00
      0.6401216923D+00  0.8137573261D+00
 Atom H9       Shell    28 S   1     bf   83 -    83          0.000000000000         -2.594353985233         -3.426256992326
      0.1612777588D+00  0.1000000000D+01
    83 basis functions,   156 primitive gaussians,    83 cartesian basis functions
    18 alpha electrons       18 beta electrons
       nuclear repulsion energy       161.3649194332 Hartrees.
 NAtoms=    9 NActive=    9 NUniq=    5 SFac= 3.24D+00 NAtFMM=   60 NAOKFM=F Big=F
 ExpMin= 1.61D-01 ExpMax= 5.48D+03 ExpMxC= 8.25D+02 IAcc=1 IRadAn=         1 AccDes= 0.00D+00
 Harris functional with IExCor=20419 and IRadAn=       1 diagonalized for initial guess.
 HarFok:  IExCor=20419 AccDes= 0.00D+00 IRadAn=         1 IDoV= 1 UseB2=F ITyADJ=14
 ICtDFT=  3500011 ScaDFX=  1.000000  1.000000  1.000000  1.000000
 FoFCou: FMM=F IPFlag=           0 FMFlag=      100000 FMFlg1=           0
         NFxFlg=           0 DoJE=T BraDBF=F KetDBF=T FulRan=T
         wScrn=  0.000000 ICntrl=     500 IOpCl=  0 I1Cent=   200000004 NGrid=           0
         NMat0=    1 NMatS0=      1 NMatT0=    0 NMatD0=    1 NMtDS0=    0 NMtDT0=    0
 Petite list used in FoFCou.
 Initial guess orbital symmetries:
       Occupied  (A1) (A1) (B2) (B2) (A1) (A1) (A1) (B2) (B2) (A1)
                 (A1) (B2) (B1) (B2) (A1) (A1) (B1) (A2)
       Virtual   (B1) (A2) (A1) (B2) (A1) (B2) (A1) (B2) (A1) (B2)
                 (B2) (A1) (B1) (B2) (A2) (A1) (B1) (A1) (B2) (A2)
                 (A1) (B2) (A1) (B2) (B2) (A1) (A1) (B1) (A1) (B2)
                 (B2) (A1) (B1) (B1) (A2) (B2) (B2) (A2) (B1) (A1)
                 (A1) (A1) (A1) (B2) (A1) (B2) (A2) (A1) (B1) (B2)
                 (A2) (B1) (A2) (B2) (A1) (A1) (B2) (B2) (A1) (B2)
                 (A1) (B2) (A1) (A1) (B2)
 The electronic state of the initial guess is 1-A1.
 Integral accuracy reduced to 1.0D-05 until final iterations.
 Initial convergence to 1.0D-05 achieved.  Increase integral accuracy.
 SCF Done:  E(RCAM-B3LYP) =  -229.905210737     A.U. after   14 cycles
            NFock= 14  Conv=0.20D-08     -V/T= 2.0089

 **********************************************************************

            Population analysis using the SCF density.

 **********************************************************************

 Orbital symmetries:
       Occupied  (A1) (B2) (A1) (A1) (B2) (A1) (A1) (B2) (B2) (A1)
                 (A1) (B1) (B2) (B2) (A1) (A1) (B1) (A2)
       Virtual   (B1) (A2) (A1) (A1) (B2) (B2) (A1) (B2) (A1) (B2)
                 (B2) (A1) (B1) (A2) (B2) (A1) (A1) (B1) (B2) (A1)
                 (A2) (B2) (A1) (B2) (A1) (B2) (B1) (A1) (A1) (B2)
                 (B2) (A1) (B1) (A2) (B2) (B1) (B2) (A2) (B1) (A1)
                 (A1) (A1) (A1) (B2) (A1) (B2) (A2) (A1) (B2) (B1)
                 (A2) (B1) (A2) (A1) (B2) (A1) (B2) (A1) (B2) (B2)
                 (A1) (B2) (A1) (A1) (B2)
 The electronic state is 1-A1.
 Alpha  occ. eigenvalues --  -19.28358 -10.30376 -10.30373 -10.25502 -10.25460
 Alpha  occ. eigenvalues --   -1.18865  -0.87449  -0.82017  -0.66698  -0.63713
 Alpha  occ. eigenvalues --   -0.61001  -0.51683  -0.50622  -0.47191  -0.45747
 Alpha  occ. eigenvalues --   -0.43143  -0.33323  -0.28113
 Alpha virt. eigenvalues --    0.07497   0.13630   0.17025   0.19815   0.20857
 Alpha virt. eigenvalues --    0.21979   0.25249   0.26655   0.37125   0.43556
 Alpha virt. eigenvalues --    0.50229   0.57403   0.59253   0.64386   0.64833
 Alpha virt. eigenvalues --    0.64986   0.65909   0.67616   0.69673   0.73888
 Alpha virt. eigenvalues --    0.74293   0.86370   0.89440   0.90898   0.96973
 Alpha virt. eigenvalues --    0.97273   1.05097   1.05288   1.08380   1.10477
 Alpha virt. eigenvalues --    1.20492   1.20904   1.41665   1.44744   1.45473
 Alpha virt. eigenvalues --    1.46721   1.60296   1.63037   1.64170   1.64252
 Alpha virt. eigenvalues --    1.75246   1.92008   2.01218   2.09746   2.13875
 Alpha virt. eigenvalues --    2.17265   2.27590   2.30390   2.34034   2.34106
 Alpha virt. eigenvalues --    2.40150   2.48179   2.66112   2.69805   2.70601
 Alpha virt. eigenvalues --    2.78640   2.86393   3.02415   3.03553   3.18263
 Alpha virt. eigenvalues --    4.01358   4.22293   4.22981   4.35896   4.53558
     Molecular Orbital Coefficients:
                           1         2         3         4         5
                        (A1)--O   (B2)--O   (A1)--O   (A1)--O   (B2)--O
     Eigenvalues --   -19.28358 -10.30376 -10.30373 -10.25502 -10.25460
   1 1   O  1S          0.99276   0.00000   0.00001   0.00009   0.00000
   2        2S          0.02576   0.00000   0.00079   0.00034   0.00000
   3        2PX         0.00000   0.00000   0.00000   0.00000   0.00000
   4        2PY         0.00000   0.00005   0.00000   0.00000   0.00001
   5        2PZ        -0.00098   0.00000  -0.00008  -0.00009   0.00000
   6        3S          0.01271   0.00000  -0.00297  -0.00248   0.00000
   7        3PX         0.00000   0.00000   0.00000   0.00000   0.00000
   8        3PY         0.00000  -0.00119   0.00000   0.00000  -0.00065
   9        3PZ        -0.00026   0.00000   0.00225   0.00077   0.00000
  10        4XX        -0.00803   0.00000   0.00080   0.00023   0.00000
  11        4YY        -0.00811   0.00000  -0.00041   0.00026   0.00000
  12        4ZZ        -0.00812   0.00000  -0.00024   0.00031   0.00000
  13        4XY         0.00000   0.00000   0.00000   0.00000   0.00000
  14        4XZ         0.00000   0.00000   0.00000   0.00000   0.00000
  15        4YZ         0.00000   0.00059   0.00000   0.00000   0.00002
  16 2   C  1S          0.00000   0.70201   0.70191  -0.00561  -0.00571
  17        2S          0.00033   0.03515   0.03451  -0.00068  -0.00068
  18        2PX         0.00000   0.00000   0.00000   0.00000   0.00000
  19        2PY        -0.00034  -0.00087  -0.00088   0.00003   0.00014
  20        2PZ         0.00027   0.00051   0.00063   0.00030   0.00015
  21        3S         -0.00154  -0.01148  -0.00542   0.00456   0.00737
  22        3PX         0.00000   0.00000   0.00000   0.00000   0.00000
  23        3PY         0.00093   0.00301  -0.00174  -0.00147  -0.00273
  24        3PZ        -0.00101   0.00348  -0.00011  -0.00172  -0.00253
  25        4XX        -0.00001  -0.00674  -0.00700  -0.00006  -0.00007
  26        4YY         0.00003  -0.00640  -0.00616  -0.00004  -0.00016
  27        4ZZ         0.00012  -0.00646  -0.00644  -0.00015  -0.00023
  28        4XY         0.00000   0.00000   0.00000   0.00000   0.00000
  29        4XZ         0.00000   0.00000   0.00000   0.00000   0.00000
  30        4YZ        -0.00008  -0.00010  -0.00011  -0.00002  -0.00009
  31 3   C  1S          0.00000  -0.70201   0.70191  -0.00561   0.00571
  32        2S          0.00033  -0.03515   0.03451  -0.00068   0.00068
  33        2PX         0.00000   0.00000   0.00000   0.00000   0.00000
  34        2PY         0.00034  -0.00087   0.00088  -0.00003   0.00014
  35        2PZ         0.00027  -0.00051   0.00063   0.00030  -0.00015
  36        3S         -0.00154   0.01148  -0.00542   0.00456  -0.00737
  37        3PX         0.00000   0.00000   0.00000   0.00000   0.00000
  38        3PY        -0.00093   0.00301   0.00174   0.00147  -0.00273
  39        3PZ        -0.00101  -0.00348  -0.00011  -0.00172   0.00253
  40        4XX        -0.00001   0.00674  -0.00700  -0.00006   0.00007
  41        4YY         0.00003   0.00640  -0.00616  -0.00004   0.00016
  42        4ZZ         0.00012   0.00646  -0.00644  -0.00015   0.00023
  43        4XY         0.00000   0.00000   0.00000   0.00000   0.00000
  44        4XZ         0.00000   0.00000   0.00000   0.00000   0.00000
  45        4YZ         0.00008  -0.00010   0.00011   0.00002  -0.00009
  46 4   C  1S          0.00000   0.00533   0.00529   0.70182   0.70211
  47        2S          0.00008  -0.00016  -0.00003   0.03510   0.03574
  48        2PX         0.00000   0.00000   0.00000   0.00000   0.00000
  49        2PY         0.00006  -0.00003  -0.00015   0.00000  -0.00032
  50        2PZ        -0.00006  -0.00018  -0.00029   0.00015   0.00030
  51        3S         -0.00033   0.00760   0.00138  -0.00813  -0.01909
  52        3PX         0.00000   0.00000   0.00000   0.00000   0.00000
  53        3PY        -0.00044  -0.00022   0.00079  -0.00013   0.00453
  54        3PZ         0.00011   0.00373   0.00011  -0.00185  -0.00440
  55        4XX        -0.00002  -0.00017  -0.00010  -0.00691  -0.00666
  56        4YY        -0.00004  -0.00031  -0.00011  -0.00696  -0.00628
  57        4ZZ        -0.00014  -0.00023  -0.00028  -0.00667  -0.00631
  58        4XY         0.00000   0.00000   0.00000   0.00000   0.00000
  59        4XZ         0.00000   0.00000   0.00000   0.00000   0.00000
  60        4YZ         0.00001   0.00007  -0.00001  -0.00005  -0.00007
  61 5   C  1S          0.00000  -0.00533   0.00529   0.70182  -0.70211
  62        2S          0.00008   0.00016  -0.00003   0.03510  -0.03574
  63        2PX         0.00000   0.00000   0.00000   0.00000   0.00000
  64        2PY        -0.00006  -0.00003   0.00015   0.00000  -0.00032
  65        2PZ        -0.00006   0.00018  -0.00029   0.00015  -0.00030
  66        3S         -0.00033  -0.00760   0.00138  -0.00813   0.01909
  67        3PX         0.00000   0.00000   0.00000   0.00000   0.00000
  68        3PY         0.00044  -0.00022  -0.00079   0.00013   0.00453
  69        3PZ         0.00011  -0.00373   0.00011  -0.00185   0.00440
  70        4XX        -0.00002   0.00017  -0.00010  -0.00691   0.00666
  71        4YY        -0.00004   0.00031  -0.00011  -0.00696   0.00628
  72        4ZZ        -0.00014   0.00023  -0.00028  -0.00667   0.00631
  73        4XY         0.00000   0.00000   0.00000   0.00000   0.00000
  74        4XZ         0.00000   0.00000   0.00000   0.00000   0.00000
  75        4YZ        -0.00001   0.00007   0.00001   0.00005  -0.00007
  76 6   H  1S          0.00008  -0.00052  -0.00025  -0.00002   0.00004
  77        2S         -0.00001   0.00000   0.00210   0.00041   0.00063
  78 7   H  1S          0.00008   0.00052  -0.00025  -0.00002  -0.00004
  79        2S         -0.00001   0.00000   0.00210   0.00041  -0.00063
  80 8   H  1S          0.00009  -0.00001  -0.00011  -0.00039  -0.00039
  81        2S          0.00014   0.00045  -0.00029   0.00095   0.00012
  82 9   H  1S          0.00009   0.00001  -0.00011  -0.00039   0.00039
  83        2S          0.00014  -0.00045  -0.00029   0.00095  -0.00012
                           6         7         8         9        10
                        (A1)--O   (A1)--O   (B2)--O   (B2)--O   (A1)--O
     Eigenvalues --    -1.18865  -0.87449  -0.82017  -0.66698  -0.63713
   1 1   O  1S         -0.19369   0.07977   0.00000   0.00000   0.05124
   2        2S          0.42389  -0.18944   0.00000   0.00000  -0.12539
   3        2PX         0.00000   0.00000   0.00000   0.00000   0.00000
   4        2PY         0.00000   0.00000   0.26288   0.31112   0.00000
   5        2PZ        -0.12071  -0.04330   0.00000   0.00000  -0.01883
   6        3S          0.42134  -0.20120   0.00000   0.00000  -0.15096
   7        3PX         0.00000   0.00000   0.00000   0.00000   0.00000
   8        3PY         0.00000   0.00000   0.12318   0.14115   0.00000
   9        3PZ        -0.06306  -0.03025   0.00000   0.00000  -0.02602
  10        4XX        -0.01228  -0.00257   0.00000   0.00000  -0.00154
  11        4YY         0.00338  -0.00439   0.00000   0.00000   0.00966
  12        4ZZ         0.00512   0.00980   0.00000   0.00000   0.00082
  13        4XY         0.00000   0.00000   0.00000   0.00000   0.00000
  14        4XZ         0.00000   0.00000   0.00000   0.00000   0.00000
  15        4YZ         0.00000   0.00000  -0.02145  -0.01061   0.00000
  16 2   C  1S         -0.07401  -0.05304  -0.13707  -0.01292  -0.10226
  17        2S          0.13517   0.10315   0.27604   0.02959   0.21273
  18        2PX         0.00000   0.00000   0.00000   0.00000   0.00000
  19        2PY        -0.09888  -0.00666  -0.01896  -0.04552   0.16703
  20        2PZ         0.04674  -0.13893   0.01091   0.23583  -0.00144
  21        3S          0.02896   0.06440   0.20066  -0.00414   0.18692
  22        3PX         0.00000   0.00000   0.00000   0.00000   0.00000
  23        3PY         0.02106   0.00157   0.01753   0.00520   0.06959
  24        3PZ         0.00385  -0.01689  -0.00595   0.06634   0.01253
  25        4XX        -0.01240  -0.00488  -0.01599  -0.00486  -0.00794
  26        4YY         0.01412  -0.00350  -0.00221   0.00811  -0.00074
  27        4ZZ        -0.00125   0.00353   0.00436  -0.00245  -0.00516
  28        4XY         0.00000   0.00000   0.00000   0.00000   0.00000
  29        4XZ         0.00000   0.00000   0.00000   0.00000   0.00000
  30        4YZ        -0.01329   0.01607  -0.00151  -0.01283   0.01401
  31 3   C  1S         -0.07401  -0.05304   0.13707   0.01292  -0.10226
  32        2S          0.13517   0.10315  -0.27604  -0.02959   0.21273
  33        2PX         0.00000   0.00000   0.00000   0.00000   0.00000
  34        2PY         0.09888   0.00666  -0.01896  -0.04552  -0.16703
  35        2PZ         0.04674  -0.13893  -0.01091  -0.23583  -0.00144
  36        3S          0.02896   0.06440  -0.20066   0.00414   0.18692
  37        3PX         0.00000   0.00000   0.00000   0.00000   0.00000
  38        3PY        -0.02106  -0.00157   0.01753   0.00520  -0.06959
  39        3PZ         0.00385  -0.01689   0.00595  -0.06634   0.01253
  40        4XX        -0.01240  -0.00488   0.01599   0.00486  -0.00794
  41        4YY         0.01412  -0.00350   0.00221  -0.00811  -0.00074
  42        4ZZ        -0.00125   0.00353  -0.00436   0.00245  -0.00516
  43        4XY         0.00000   0.00000   0.00000   0.00000   0.00000
  44        4XZ         0.00000   0.00000   0.00000   0.00000   0.00000
  45        4YZ         0.01329  -0.01607  -0.00151  -0.01283  -0.01401
  46 4   C  1S         -0.02567  -0.14006  -0.06564   0.10132   0.04573
  47        2S          0.04610   0.26670   0.12917  -0.20603  -0.09488
  48        2PX         0.00000   0.00000   0.00000   0.00000   0.00000
  49        2PY        -0.01209  -0.06625   0.06675  -0.12593   0.13535
  50        2PZ         0.03483   0.05412   0.07141  -0.00418   0.13395
  51        3S          0.03060   0.19052   0.09496  -0.13992  -0.07948
  52        3PX         0.00000   0.00000   0.00000   0.00000   0.00000
  53        3PY        -0.00761  -0.00752   0.00575  -0.05897   0.02847
  54        3PZ         0.01221   0.00422  -0.00223   0.04064   0.05164
  55        4XX        -0.00354  -0.01558  -0.00633   0.00879   0.00414
  56        4YY        -0.00051   0.00582  -0.00838   0.00846  -0.00635
  57        4ZZ         0.00446   0.00041   0.00835  -0.00470   0.00567
  58        4XY         0.00000   0.00000   0.00000   0.00000   0.00000
  59        4XZ         0.00000   0.00000   0.00000   0.00000   0.00000
  60        4YZ        -0.00105  -0.00526   0.00264   0.00443   0.00740
  61 5   C  1S         -0.02567  -0.14006   0.06564  -0.10132   0.04573
  62        2S          0.04610   0.26670  -0.12917   0.20603  -0.09488
  63        2PX         0.00000   0.00000   0.00000   0.00000   0.00000
  64        2PY         0.01209   0.06625   0.06675  -0.12593  -0.13535
  65        2PZ         0.03483   0.05412  -0.07141   0.00418   0.13395
  66        3S          0.03060   0.19052  -0.09496   0.13992  -0.07948
  67        3PX         0.00000   0.00000   0.00000   0.00000   0.00000
  68        3PY         0.00761   0.00752   0.00575  -0.05897  -0.02847
  69        3PZ         0.01221   0.00422   0.00223  -0.04064   0.05164
  70        4XX        -0.00354  -0.01558   0.00633  -0.00879   0.00414
  71        4YY        -0.00051   0.00582   0.00838  -0.00846  -0.00635
  72        4ZZ         0.00446   0.00041  -0.00835   0.00470   0.00567
  73        4XY         0.00000   0.00000   0.00000   0.00000   0.00000
  74        4XZ         0.00000   0.00000   0.00000   0.00000   0.00000
  75        4YZ         0.00105   0.00526   0.00264   0.00443  -0.00740
  76 6   H  1S          0.01638   0.01288   0.08917   0.03952   0.16306
  77        2S         -0.00876  -0.00044   0.02072   0.01681   0.07949
  78 7   H  1S          0.01638   0.01288  -0.08917  -0.03952   0.16306
  79        2S         -0.00876  -0.00044  -0.02072  -0.01681   0.07949
  80 8   H  1S          0.00422   0.06006   0.03810  -0.11669  -0.05294
  81        2S          0.00229   0.01042   0.00692  -0.04181  -0.02201
  82 9   H  1S          0.00422   0.06006  -0.03810   0.11669  -0.05294
  83        2S          0.00229   0.01042  -0.00692   0.04181  -0.02201
                          11        12        13        14        15
                        (A1)--O   (B1)--O   (B2)--O   (B2)--O   (A1)--O
     Eigenvalues --    -0.61001  -0.51683  -0.50622  -0.47191  -0.45747
   1 1   O  1S         -0.04424   0.00000   0.00000   0.00000   0.00894
   2        2S          0.10475   0.00000   0.00000   0.00000  -0.01934
   3        2PX         0.00000   0.47836   0.00000   0.00000   0.00000
   4        2PY         0.00000   0.00000   0.33818  -0.02541   0.00000
   5        2PZ         0.26327   0.00000   0.00000   0.00000  -0.29711
   6        3S          0.13582   0.00000   0.00000   0.00000   0.01066
   7        3PX         0.00000   0.30075   0.00000   0.00000   0.00000
   8        3PY         0.00000   0.00000   0.17239  -0.01169   0.00000
   9        3PZ         0.15918   0.00000   0.00000   0.00000  -0.20034
  10        4XX         0.00574   0.00000   0.00000   0.00000  -0.00417
  11        4YY         0.01396   0.00000   0.00000   0.00000  -0.01007
  12        4ZZ        -0.02402   0.00000   0.00000   0.00000   0.01497
  13        4XY         0.00000   0.00000   0.00000   0.00000   0.00000
  14        4XZ         0.00000  -0.02825   0.00000   0.00000   0.00000
  15        4YZ         0.00000   0.00000  -0.01406  -0.00970   0.00000
  16 2   C  1S          0.00813   0.00000   0.02983  -0.03790  -0.00732
  17        2S         -0.01932   0.00000  -0.05541   0.08628   0.02182
  18        2PX         0.00000   0.21676   0.00000   0.00000   0.00000
  19        2PY         0.17846   0.00000  -0.28702  -0.14873  -0.10245
  20        2PZ         0.09939   0.00000   0.03016  -0.22758  -0.04965
  21        3S          0.02032   0.00000  -0.09921   0.11644  -0.00704
  22        3PX         0.00000   0.11449   0.00000   0.00000   0.00000
  23        3PY         0.03821   0.00000  -0.07745  -0.04488   0.00349
  24        3PZ         0.03603   0.00000   0.02745  -0.08341  -0.04532
  25        4XX         0.00224   0.00000  -0.00065  -0.00154  -0.00159
  26        4YY        -0.00804   0.00000  -0.00846  -0.01136   0.00152
  27        4ZZ         0.00852   0.00000   0.00989  -0.00040  -0.00468
  28        4XY         0.00000  -0.01875   0.00000   0.00000   0.00000
  29        4XZ         0.00000   0.00597   0.00000   0.00000   0.00000
  30        4YZ        -0.00160   0.00000  -0.02688   0.00245  -0.01838
  31 3   C  1S          0.00813   0.00000  -0.02983   0.03790  -0.00732
  32        2S         -0.01932   0.00000   0.05541  -0.08628   0.02182
  33        2PX         0.00000   0.21676   0.00000   0.00000   0.00000
  34        2PY        -0.17846   0.00000  -0.28702  -0.14873   0.10245
  35        2PZ         0.09939   0.00000  -0.03016   0.22758  -0.04965
  36        3S          0.02032   0.00000   0.09921  -0.11644  -0.00704
  37        3PX         0.00000   0.11449   0.00000   0.00000   0.00000
  38        3PY        -0.03821   0.00000  -0.07745  -0.04488  -0.00349
  39        3PZ         0.03603   0.00000  -0.02745   0.08341  -0.04532
  40        4XX         0.00224   0.00000   0.00065   0.00154  -0.00159
  41        4YY        -0.00804   0.00000   0.00846   0.01136   0.00152
  42        4ZZ         0.00852   0.00000  -0.00989   0.00040  -0.00468
  43        4XY         0.00000   0.01875   0.00000   0.00000   0.00000
  44        4XZ         0.00000   0.00597   0.00000   0.00000   0.00000
  45        4YZ         0.00160   0.00000  -0.02688   0.00245   0.01838
  46 4   C  1S         -0.03627   0.00000  -0.03976   0.00166   0.02033
  47        2S          0.07352   0.00000   0.07918   0.00511  -0.04930
  48        2PX         0.00000   0.12608   0.00000   0.00000   0.00000
  49        2PY         0.07384   0.00000   0.03432  -0.04600   0.35331
  50        2PZ        -0.21624   0.00000  -0.07325   0.30110  -0.06530
  51        3S          0.09023   0.00000   0.13790  -0.04329  -0.06257
  52        3PX         0.00000   0.06005   0.00000   0.00000   0.00000
  53        3PY         0.03068   0.00000   0.00093  -0.01208   0.10719
  54        3PZ        -0.07209   0.00000  -0.00942   0.05725  -0.00938
  55        4XX        -0.00209   0.00000  -0.00394   0.00130   0.00044
  56        4YY         0.00490   0.00000  -0.00597  -0.01058  -0.00958
  57        4ZZ        -0.00242   0.00000   0.00596   0.00271   0.01576
  58        4XY         0.00000  -0.00385   0.00000   0.00000   0.00000
  59        4XZ         0.00000   0.00908   0.00000   0.00000   0.00000
  60        4YZ         0.00123   0.00000  -0.01249   0.02018  -0.00607
  61 5   C  1S         -0.03627   0.00000   0.03976  -0.00166   0.02033
  62        2S          0.07352   0.00000  -0.07918  -0.00511  -0.04930
  63        2PX         0.00000   0.12608   0.00000   0.00000   0.00000
  64        2PY        -0.07384   0.00000   0.03432  -0.04600  -0.35331
  65        2PZ        -0.21624   0.00000   0.07325  -0.30110  -0.06530
  66        3S          0.09023   0.00000  -0.13790   0.04329  -0.06257
  67        3PX         0.00000   0.06005   0.00000   0.00000   0.00000
  68        3PY        -0.03068   0.00000   0.00093  -0.01208  -0.10719
  69        3PZ        -0.07209   0.00000   0.00942  -0.05725  -0.00938
  70        4XX        -0.00209   0.00000   0.00394  -0.00130   0.00044
  71        4YY         0.00490   0.00000   0.00597   0.01058  -0.00958
  72        4ZZ        -0.00242   0.00000  -0.00596  -0.00271   0.01576
  73        4XY         0.00000   0.00385   0.00000   0.00000   0.00000
  74        4XZ         0.00000   0.00908   0.00000   0.00000   0.00000
  75        4YZ        -0.00123   0.00000  -0.01249   0.02018   0.00607
  76 6   H  1S          0.08873   0.00000  -0.18559  -0.10245  -0.07220
  77        2S          0.06038   0.00000  -0.15624  -0.10147  -0.07973
  78 7   H  1S          0.08873   0.00000   0.18559   0.10245  -0.07220
  79        2S          0.06038   0.00000   0.15624   0.10147  -0.07973
  80 8   H  1S          0.13829   0.00000   0.09512  -0.17732   0.15089
  81        2S          0.08136   0.00000   0.07469  -0.17272   0.15166
  82 9   H  1S          0.13829   0.00000  -0.09512   0.17732   0.15089
  83        2S          0.08136   0.00000  -0.07469   0.17272   0.15166
                          16        17        18        19        20
                        (A1)--O   (B1)--O   (A2)--O   (B1)--V   (A2)--V
     Eigenvalues --    -0.43143  -0.33323  -0.28113   0.07497   0.13630
   1 1   O  1S         -0.05583   0.00000   0.00000   0.00000   0.00000
   2        2S          0.10703   0.00000   0.00000   0.00000   0.00000
   3        2PX         0.00000   0.37428   0.00000  -0.33261   0.00000
   4        2PY         0.00000   0.00000   0.00000   0.00000   0.00000
   5        2PZ         0.43888   0.00000   0.00000   0.00000   0.00000
   6        3S          0.26888   0.00000   0.00000   0.00000   0.00000
   7        3PX         0.00000   0.28521   0.00000  -0.37758   0.00000
   8        3PY         0.00000   0.00000   0.00000   0.00000   0.00000
   9        3PZ         0.27166   0.00000   0.00000   0.00000   0.00000
  10        4XX        -0.00105   0.00000   0.00000   0.00000   0.00000
  11        4YY        -0.00767   0.00000   0.00000   0.00000   0.00000
  12        4ZZ        -0.02186   0.00000   0.00000   0.00000   0.00000
  13        4XY         0.00000   0.00000   0.02071   0.00000  -0.02527
  14        4XZ         0.00000  -0.01019   0.00000  -0.00039   0.00000
  15        4YZ         0.00000   0.00000   0.00000   0.00000   0.00000
  16 2   C  1S          0.01175   0.00000   0.00000   0.00000   0.00000
  17        2S         -0.02917   0.00000   0.00000   0.00000   0.00000
  18        2PX         0.00000  -0.08822   0.37378   0.36117  -0.24762
  19        2PY         0.00502   0.00000   0.00000   0.00000   0.00000
  20        2PZ        -0.25131   0.00000   0.00000   0.00000   0.00000
  21        3S         -0.06105   0.00000   0.00000   0.00000   0.00000
  22        3PX         0.00000  -0.04415   0.27614   0.48413  -0.42371
  23        3PY         0.01109   0.00000   0.00000   0.00000   0.00000
  24        3PZ        -0.02651   0.00000   0.00000   0.00000   0.00000
  25        4XX         0.00375   0.00000   0.00000   0.00000   0.00000
  26        4YY        -0.02409   0.00000   0.00000   0.00000   0.00000
  27        4ZZ         0.01423   0.00000   0.00000   0.00000   0.00000
  28        4XY         0.00000  -0.00578  -0.00192   0.01554  -0.00356
  29        4XZ         0.00000   0.02354  -0.00775   0.00066  -0.02729
  30        4YZ        -0.00140   0.00000   0.00000   0.00000   0.00000
  31 3   C  1S          0.01175   0.00000   0.00000   0.00000   0.00000
  32        2S         -0.02917   0.00000   0.00000   0.00000   0.00000
  33        2PX         0.00000  -0.08822  -0.37378   0.36117   0.24762
  34        2PY        -0.00502   0.00000   0.00000   0.00000   0.00000
  35        2PZ        -0.25131   0.00000   0.00000   0.00000   0.00000
  36        3S         -0.06105   0.00000   0.00000   0.00000   0.00000
  37        3PX         0.00000  -0.04415  -0.27614   0.48413   0.42371
  38        3PY        -0.01109   0.00000   0.00000   0.00000   0.00000
  39        3PZ        -0.02651   0.00000   0.00000   0.00000   0.00000
  40        4XX         0.00375   0.00000   0.00000   0.00000   0.00000
  41        4YY        -0.02409   0.00000   0.00000   0.00000   0.00000
  42        4ZZ         0.01423   0.00000   0.00000   0.00000   0.00000
  43        4XY         0.00000   0.00578  -0.00192  -0.01554  -0.00356
  44        4XZ         0.00000   0.02354   0.00775   0.00066   0.02729
  45        4YZ         0.00140   0.00000   0.00000   0.00000   0.00000
  46 4   C  1S         -0.01476   0.00000   0.00000   0.00000   0.00000
  47        2S          0.02678   0.00000   0.00000   0.00000   0.00000
  48        2PX         0.00000  -0.33300   0.22722  -0.19519   0.37904
  49        2PY         0.16443   0.00000   0.00000   0.00000   0.00000
  50        2PZ         0.19215   0.00000   0.00000   0.00000   0.00000
  51        3S          0.08663   0.00000   0.00000   0.00000   0.00000
  52        3PX         0.00000  -0.23310   0.17234  -0.28805   0.66909
  53        3PY         0.08391   0.00000   0.00000   0.00000   0.00000
  54        3PZ         0.09443   0.00000   0.00000   0.00000   0.00000
  55        4XX        -0.00141   0.00000   0.00000   0.00000   0.00000
  56        4YY        -0.00513   0.00000   0.00000   0.00000   0.00000
  57        4ZZ         0.00480   0.00000   0.00000   0.00000   0.00000
  58        4XY         0.00000   0.01086   0.01338   0.01702   0.01671
  59        4XZ         0.00000  -0.00626   0.01467   0.02181  -0.01003
  60        4YZ         0.00061   0.00000   0.00000   0.00000   0.00000
  61 5   C  1S         -0.01476   0.00000   0.00000   0.00000   0.00000
  62        2S          0.02678   0.00000   0.00000   0.00000   0.00000
  63        2PX         0.00000  -0.33300  -0.22722  -0.19519  -0.37904
  64        2PY        -0.16443   0.00000   0.00000   0.00000   0.00000
  65        2PZ         0.19215   0.00000   0.00000   0.00000   0.00000
  66        3S          0.08663   0.00000   0.00000   0.00000   0.00000
  67        3PX         0.00000  -0.23310  -0.17234  -0.28805  -0.66909
  68        3PY        -0.08391   0.00000   0.00000   0.00000   0.00000
  69        3PZ         0.09443   0.00000   0.00000   0.00000   0.00000
  70        4XX        -0.00141   0.00000   0.00000   0.00000   0.00000
  71        4YY        -0.00513   0.00000   0.00000   0.00000   0.00000
  72        4ZZ         0.00480   0.00000   0.00000   0.00000   0.00000
  73        4XY         0.00000  -0.01086   0.01338  -0.01702   0.01671
  74        4XZ         0.00000  -0.00626  -0.01467   0.02181   0.01003
  75        4YZ        -0.00061   0.00000   0.00000   0.00000   0.00000
  76 6   H  1S         -0.10191   0.00000   0.00000   0.00000   0.00000
  77        2S         -0.10162   0.00000   0.00000   0.00000   0.00000
  78 7   H  1S         -0.10191   0.00000   0.00000   0.00000   0.00000
  79        2S         -0.10162   0.00000   0.00000   0.00000   0.00000
  80 8   H  1S         -0.01944   0.00000   0.00000   0.00000   0.00000
  81        2S         -0.02472   0.00000   0.00000   0.00000   0.00000
  82 9   H  1S         -0.01944   0.00000   0.00000   0.00000   0.00000
  83        2S         -0.02472   0.00000   0.00000   0.00000   0.00000
                          21        22        23        24        25
                        (A1)--V   (A1)--V   (B2)--V   (B2)--V   (A1)--V
     Eigenvalues --     0.17025   0.19815   0.20857   0.21979   0.25249
   1 1   O  1S          0.00736  -0.08202   0.00000   0.00000  -0.10257
   2        2S         -0.03977   0.14480   0.00000   0.00000   0.08785
   3        2PX         0.00000   0.00000   0.00000   0.00000   0.00000
   4        2PY         0.00000   0.00000   0.01335  -0.00788   0.00000
   5        2PZ         0.07145  -0.17181   0.00000   0.00000  -0.06982
   6        3S         -0.03285   0.91581   0.00000   0.00000   1.73067
   7        3PX         0.00000   0.00000   0.00000   0.00000   0.00000
   8        3PY         0.00000   0.00000  -0.03204   0.16013   0.00000
   9        3PZ         0.13139  -0.24219   0.00000   0.00000  -0.43254
  10        4XX        -0.00943  -0.02673   0.00000   0.00000  -0.05860
  11        4YY        -0.01637  -0.03559   0.00000   0.00000  -0.04585
  12        4ZZ         0.00304  -0.01180   0.00000   0.00000  -0.03755
  13        4XY         0.00000   0.00000   0.00000   0.00000   0.00000
  14        4XZ         0.00000   0.00000   0.00000   0.00000   0.00000
  15        4YZ         0.00000   0.00000   0.00936  -0.02000   0.00000
  16 2   C  1S          0.04647   0.08336   0.05663  -0.00476  -0.00584
  17        2S         -0.07713  -0.12991  -0.11957   0.03907   0.02700
  18        2PX         0.00000   0.00000   0.00000   0.00000   0.00000
  19        2PY        -0.16106   0.00827  -0.23013  -0.10431   0.21676
  20        2PZ        -0.04579  -0.15298  -0.08116  -0.06647  -0.14410
  21        3S         -0.71463  -1.03680  -0.62905  -0.63915   0.23121
  22        3PX         0.00000   0.00000   0.00000   0.00000   0.00000
  23        3PY        -0.34225  -0.20593  -1.10958   0.13929   0.94292
  24        3PZ        -0.12441  -0.56232  -0.37548  -0.12813  -0.75220
  25        4XX         0.00048  -0.00357  -0.00354   0.00249  -0.00756
  26        4YY         0.01279   0.02053   0.00202  -0.00341   0.00902
  27        4ZZ         0.00025   0.00078   0.01198  -0.01646  -0.01514
  28        4XY         0.00000   0.00000   0.00000   0.00000   0.00000
  29        4XZ         0.00000   0.00000   0.00000   0.00000   0.00000
  30        4YZ         0.01572  -0.01636   0.00569   0.00251  -0.00349
  31 3   C  1S          0.04647   0.08336  -0.05663   0.00476  -0.00584
  32        2S         -0.07713  -0.12991   0.11957  -0.03907   0.02700
  33        2PX         0.00000   0.00000   0.00000   0.00000   0.00000
  34        2PY         0.16106  -0.00827  -0.23013  -0.10431  -0.21676
  35        2PZ        -0.04579  -0.15298   0.08116   0.06647  -0.14410
  36        3S         -0.71463  -1.03680   0.62905   0.63915   0.23121
  37        3PX         0.00000   0.00000   0.00000   0.00000   0.00000
  38        3PY         0.34225   0.20593  -1.10958   0.13929  -0.94292
  39        3PZ        -0.12441  -0.56232   0.37548   0.12813  -0.75220
  40        4XX         0.00048  -0.00357   0.00354  -0.00249  -0.00756
  41        4YY         0.01279   0.02053  -0.00202   0.00341   0.00902
  42        4ZZ         0.00025   0.00078  -0.01198   0.01646  -0.01514
  43        4XY         0.00000   0.00000   0.00000   0.00000   0.00000
  44        4XZ         0.00000   0.00000   0.00000   0.00000   0.00000
  45        4YZ        -0.01572   0.01636   0.00569   0.00251   0.00349
  46 4   C  1S          0.03736  -0.03631  -0.04723   0.08049   0.04190
  47        2S         -0.05023   0.07874   0.12509  -0.15647  -0.03366
  48        2PX         0.00000   0.00000   0.00000   0.00000   0.00000
  49        2PY        -0.08973   0.05035  -0.04273  -0.07724  -0.17221
  50        2PZ         0.17472  -0.07612   0.02949   0.17565   0.02900
  51        3S         -0.67451   0.41339  -0.14101  -0.83451  -1.15558
  52        3PX         0.00000   0.00000   0.00000   0.00000   0.00000
  53        3PY        -0.22313   0.30618   0.34395  -0.55428  -0.66894
  54        3PZ         0.38606  -0.29521  -0.41499   1.09773   0.08909
  55        4XX        -0.00107  -0.00243   0.00293  -0.00150  -0.00087
  56        4YY         0.00022   0.01012  -0.02157   0.00916   0.01247
  57        4ZZ         0.00804  -0.00756   0.00318   0.01020   0.00154
  58        4XY         0.00000   0.00000   0.00000   0.00000   0.00000
  59        4XZ         0.00000   0.00000   0.00000   0.00000   0.00000
  60        4YZ        -0.02423   0.00652  -0.00509   0.00620   0.01857
  61 5   C  1S          0.03736  -0.03631   0.04723  -0.08049   0.04190
  62        2S         -0.05023   0.07874  -0.12509   0.15647  -0.03366
  63        2PX         0.00000   0.00000   0.00000   0.00000   0.00000
  64        2PY         0.08973  -0.05035  -0.04273  -0.07724   0.17221
  65        2PZ         0.17472  -0.07612  -0.02949  -0.17565   0.02900
  66        3S         -0.67451   0.41339   0.14101   0.83451  -1.15558
  67        3PX         0.00000   0.00000   0.00000   0.00000   0.00000
  68        3PY         0.22313  -0.30618   0.34395  -0.55428   0.66894
  69        3PZ         0.38606  -0.29521   0.41499  -1.09773   0.08909
  70        4XX        -0.00107  -0.00243  -0.00293   0.00150  -0.00087
  71        4YY         0.00022   0.01012   0.02157  -0.00916   0.01247
  72        4ZZ         0.00804  -0.00756  -0.00318  -0.01020   0.00154
  73        4XY         0.00000   0.00000   0.00000   0.00000   0.00000
  74        4XZ         0.00000   0.00000   0.00000   0.00000   0.00000
  75        4YZ         0.02423  -0.00652  -0.00509   0.00620  -0.01857
  76 6   H  1S          0.04939   0.05669   0.04997  -0.01221   0.02417
  77        2S          0.91884   1.09119   1.68256   0.29128  -0.57251
  78 7   H  1S          0.04939   0.05669  -0.04997   0.01221   0.02417
  79        2S          0.91884   1.09119  -1.68256  -0.29128  -0.57251
  80 8   H  1S          0.07017  -0.04718  -0.01303   0.03510  -0.06571
  81        2S          1.03657  -0.79410  -0.46171   1.74532   0.86398
  82 9   H  1S          0.07017  -0.04718   0.01303  -0.03510  -0.06571
  83        2S          1.03657  -0.79410   0.46171  -1.74532   0.86398
                          26        27        28        29        30
                        (B2)--V   (A1)--V   (B2)--V   (B2)--V   (A1)--V
     Eigenvalues --     0.26655   0.37125   0.43556   0.50229   0.57403
   1 1   O  1S          0.00000   0.04176   0.00000   0.00000   0.03225
   2        2S          0.00000   0.01690   0.00000   0.00000  -0.11985
   3        2PX         0.00000   0.00000   0.00000   0.00000   0.00000
   4        2PY        -0.37468   0.00000  -0.13322   0.38316   0.00000
   5        2PZ         0.00000   0.08681   0.00000   0.00000  -0.01172
   6        3S          0.00000  -1.10709   0.00000   0.00000  -0.46680
   7        3PX         0.00000   0.00000   0.00000   0.00000   0.00000
   8        3PY        -0.68347   0.00000  -0.61565   0.77264   0.00000
   9        3PZ         0.00000   0.61819   0.00000   0.00000   0.38186
  10        4XX         0.00000   0.05883   0.00000   0.00000   0.03191
  11        4YY         0.00000  -0.00068   0.00000   0.00000  -0.02088
  12        4ZZ         0.00000   0.01904   0.00000   0.00000  -0.04726
  13        4XY         0.00000   0.00000   0.00000   0.00000   0.00000
  14        4XZ         0.00000   0.00000   0.00000   0.00000   0.00000
  15        4YZ        -0.00920   0.00000   0.06449   0.04280   0.00000
  16 2   C  1S         -0.06863  -0.06037   0.04791   0.07422  -0.03642
  17        2S          0.14239  -0.01341  -0.07210  -0.02717  -0.42912
  18        2PX         0.00000   0.00000   0.00000   0.00000   0.00000
  19        2PY        -0.14285  -0.09397   0.07401   0.29501  -0.05177
  20        2PZ         0.09057  -0.24881   0.01281  -0.26162   0.16517
  21        3S          0.83899   2.13858  -1.95994  -1.80938   0.95354
  22        3PX         0.00000   0.00000   0.00000   0.00000   0.00000
  23        3PY        -0.15935  -1.16740   0.25519   1.59725  -0.38533
  24        3PZ         0.46438  -1.17838   2.54621   0.50581  -0.45733
  25        4XX         0.00979   0.00222  -0.00031  -0.02150   0.02612
  26        4YY         0.00028   0.00104  -0.01256   0.01564  -0.05199
  27        4ZZ        -0.01235  -0.00637   0.02554   0.02778  -0.08651
  28        4XY         0.00000   0.00000   0.00000   0.00000   0.00000
  29        4XZ         0.00000   0.00000   0.00000   0.00000   0.00000
  30        4YZ         0.03269  -0.01568  -0.00834  -0.00420  -0.04819
  31 3   C  1S          0.06863  -0.06037  -0.04791  -0.07422  -0.03642
  32        2S         -0.14239  -0.01341   0.07210   0.02717  -0.42912
  33        2PX         0.00000   0.00000   0.00000   0.00000   0.00000
  34        2PY        -0.14285   0.09397   0.07401   0.29501   0.05177
  35        2PZ        -0.09057  -0.24881  -0.01281   0.26162   0.16517
  36        3S         -0.83899   2.13858   1.95994   1.80938   0.95354
  37        3PX         0.00000   0.00000   0.00000   0.00000   0.00000
  38        3PY        -0.15935   1.16740   0.25519   1.59725   0.38533
  39        3PZ        -0.46438  -1.17838  -2.54621  -0.50581  -0.45733
  40        4XX        -0.00979   0.00222   0.00031   0.02150   0.02612
  41        4YY        -0.00028   0.00104   0.01256  -0.01564  -0.05199
  42        4ZZ         0.01235  -0.00637  -0.02554  -0.02778  -0.08651
  43        4XY         0.00000   0.00000   0.00000   0.00000   0.00000
  44        4XZ         0.00000   0.00000   0.00000   0.00000   0.00000
  45        4YZ         0.03269   0.01568  -0.00834  -0.00420   0.04819
  46 4   C  1S         -0.04099   0.06168  -0.03082  -0.08545   0.00967
  47        2S          0.02304  -0.08924  -0.03463   0.08291  -0.37210
  48        2PX         0.00000   0.00000   0.00000   0.00000   0.00000
  49        2PY        -0.20665   0.10203   0.18534  -0.13218  -0.25187
  50        2PZ        -0.02619  -0.07493   0.20444   0.10910  -0.27518
  51        3S          1.28569  -1.76272   2.15401   3.42395   0.04940
  52        3PX         0.00000   0.00000   0.00000   0.00000   0.00000
  53        3PY        -1.28560  -0.27329   0.75161  -2.53703   0.45677
  54        3PZ         0.03354  -1.63717   2.30431   1.27073  -0.06789
  55        4XX        -0.00352   0.00853  -0.01168  -0.00489   0.01253
  56        4YY        -0.02358  -0.03539   0.01756   0.00229  -0.01309
  57        4ZZ         0.02126   0.01936  -0.00157   0.01551  -0.07077
  58        4XY         0.00000   0.00000   0.00000   0.00000   0.00000
  59        4XZ         0.00000   0.00000   0.00000   0.00000   0.00000
  60        4YZ        -0.00988   0.02628   0.01171   0.01898   0.03105
  61 5   C  1S          0.04099   0.06168   0.03082   0.08545   0.00967
  62        2S         -0.02304  -0.08924   0.03463  -0.08291  -0.37210
  63        2PX         0.00000   0.00000   0.00000   0.00000   0.00000
  64        2PY        -0.20665  -0.10203   0.18534  -0.13218   0.25187
  65        2PZ         0.02619  -0.07493  -0.20444  -0.10910  -0.27518
  66        3S         -1.28569  -1.76272  -2.15401  -3.42395   0.04940
  67        3PX         0.00000   0.00000   0.00000   0.00000   0.00000
  68        3PY        -1.28560   0.27329   0.75161  -2.53703  -0.45677
  69        3PZ        -0.03354  -1.63717  -2.30431  -1.27073  -0.06789
  70        4XX         0.00352   0.00853   0.01168   0.00489   0.01253
  71        4YY         0.02358  -0.03539  -0.01756  -0.00229  -0.01309
  72        4ZZ        -0.02126   0.01936   0.00157  -0.01551  -0.07077
  73        4XY         0.00000   0.00000   0.00000   0.00000   0.00000
  74        4XZ         0.00000   0.00000   0.00000   0.00000   0.00000
  75        4YZ        -0.00988  -0.02628   0.01171   0.01898  -0.03105
  76 6   H  1S          0.05876  -0.05038  -0.02771   0.13048  -0.30717
  77        2S         -0.35440   0.76877  -0.60365  -0.71254   0.30838
  78 7   H  1S         -0.05876  -0.05038   0.02771  -0.13048  -0.30717
  79        2S          0.35440   0.76877   0.60365   0.71254   0.30838
  80 8   H  1S          0.05573  -0.06059  -0.01843  -0.06359  -0.15902
  81        2S          0.42238  -0.48934   0.55149   1.10319  -0.12149
  82 9   H  1S         -0.05573  -0.06059   0.01843   0.06359  -0.15902
  83        2S         -0.42238  -0.48934  -0.55149  -1.10319  -0.12149
                          31        32        33        34        35
                        (B1)--V   (A2)--V   (B2)--V   (A1)--V   (A1)--V
     Eigenvalues --     0.59253   0.64386   0.64833   0.64986   0.65909
   1 1   O  1S          0.00000   0.00000   0.00000   0.01272   0.00431
   2        2S          0.00000   0.00000   0.00000  -0.24454   0.00858
   3        2PX        -0.07343   0.00000   0.00000   0.00000   0.00000
   4        2PY         0.00000   0.00000  -0.10571   0.00000   0.00000
   5        2PZ         0.00000   0.00000   0.00000   0.53565   0.03151
   6        3S          0.00000   0.00000   0.00000   1.18033   0.44951
   7        3PX        -0.15328   0.00000   0.00000   0.00000   0.00000
   8        3PY         0.00000   0.00000   0.24579   0.00000   0.00000
   9        3PZ         0.00000   0.00000   0.00000  -0.25171  -0.15404
  10        4XX         0.00000   0.00000   0.00000  -0.13030  -0.03141
  11        4YY         0.00000   0.00000   0.00000   0.08755   0.10949
  12        4ZZ         0.00000   0.00000   0.00000  -0.00119  -0.00784
  13        4XY         0.00000  -0.04101   0.00000   0.00000   0.00000
  14        4XZ         0.03694   0.00000   0.00000   0.00000   0.00000
  15        4YZ         0.00000   0.00000  -0.03800   0.00000   0.00000
  16 2   C  1S          0.00000   0.00000   0.01912  -0.05028   0.02772
  17        2S          0.00000   0.00000  -0.27642   0.43114   0.00988
  18        2PX        -0.59474  -0.63213   0.00000   0.00000   0.00000
  19        2PY         0.00000   0.00000  -0.10706  -0.40309  -0.18526
  20        2PZ         0.00000   0.00000   0.34302   0.30113   0.33686
  21        3S          0.00000   0.00000  -1.29973  -0.24084  -0.44489
  22        3PX         0.60464   0.75739   0.00000   0.00000   0.00000
  23        3PY         0.00000   0.00000   1.07701   0.37632   0.56648
  24        3PZ         0.00000   0.00000   0.50460  -1.01581   0.01687
  25        4XX         0.00000   0.00000   0.01261   0.03199  -0.01007
  26        4YY         0.00000   0.00000  -0.04443  -0.03726  -0.06371
  27        4ZZ         0.00000   0.00000  -0.05148   0.00178   0.08381
  28        4XY         0.01429   0.04490   0.00000   0.00000   0.00000
  29        4XZ         0.02168   0.02725   0.00000   0.00000   0.00000
  30        4YZ         0.00000   0.00000   0.02311   0.06923   0.01194
  31 3   C  1S          0.00000   0.00000  -0.01912  -0.05028   0.02772
  32        2S          0.00000   0.00000   0.27642   0.43114   0.00988
  33        2PX        -0.59474   0.63213   0.00000   0.00000   0.00000
  34        2PY         0.00000   0.00000  -0.10706   0.40309   0.18526
  35        2PZ         0.00000   0.00000  -0.34302   0.30113   0.33686
  36        3S          0.00000   0.00000   1.29973  -0.24084  -0.44489
  37        3PX         0.60464  -0.75739   0.00000   0.00000   0.00000
  38        3PY         0.00000   0.00000   1.07701  -0.37632  -0.56648
  39        3PZ         0.00000   0.00000  -0.50460  -1.01581   0.01687
  40        4XX         0.00000   0.00000  -0.01261   0.03199  -0.01007
  41        4YY         0.00000   0.00000   0.04443  -0.03726  -0.06371
  42        4ZZ         0.00000   0.00000   0.05148   0.00178   0.08381
  43        4XY        -0.01429   0.04490   0.00000   0.00000   0.00000
  44        4XZ         0.02168  -0.02725   0.00000   0.00000   0.00000
  45        4YZ         0.00000   0.00000   0.02311  -0.06923  -0.01194
  46 4   C  1S          0.00000   0.00000  -0.10390   0.02154  -0.05571
  47        2S          0.00000   0.00000  -0.02545   0.11588  -0.27963
  48        2PX        -0.41985  -0.35496   0.00000   0.00000   0.00000
  49        2PY         0.00000   0.00000  -0.43680  -0.06199   0.30620
  50        2PZ         0.00000   0.00000  -0.12660  -0.15934   0.33785
  51        3S          0.00000   0.00000   2.09128  -0.75681   0.74034
  52        3PX         0.24792   0.35948   0.00000   0.00000   0.00000
  53        3PY         0.00000   0.00000  -0.36880  -0.18124  -0.31205
  54        3PZ         0.00000   0.00000   1.70080  -0.15202  -0.03792
  55        4XX         0.00000   0.00000   0.05309  -0.02011   0.04468
  56        4YY         0.00000   0.00000  -0.08140   0.01343  -0.07241
  57        4ZZ         0.00000   0.00000  -0.03643   0.05752  -0.09836
  58        4XY         0.01179  -0.00278   0.00000   0.00000   0.00000
  59        4XZ        -0.03431  -0.04390   0.00000   0.00000   0.00000
  60        4YZ         0.00000   0.00000   0.00057  -0.05609   0.02012
  61 5   C  1S          0.00000   0.00000   0.10390   0.02154  -0.05571
  62        2S          0.00000   0.00000   0.02545   0.11588  -0.27963
  63        2PX        -0.41985   0.35496   0.00000   0.00000   0.00000
  64        2PY         0.00000   0.00000  -0.43680   0.06199  -0.30620
  65        2PZ         0.00000   0.00000   0.12660  -0.15934   0.33785
  66        3S          0.00000   0.00000  -2.09128  -0.75681   0.74034
  67        3PX         0.24792  -0.35948   0.00000   0.00000   0.00000
  68        3PY         0.00000   0.00000  -0.36880   0.18124   0.31205
  69        3PZ         0.00000   0.00000  -1.70080  -0.15202  -0.03792
  70        4XX         0.00000   0.00000  -0.05309  -0.02011   0.04468
  71        4YY         0.00000   0.00000   0.08140   0.01343  -0.07241
  72        4ZZ         0.00000   0.00000   0.03643   0.05752  -0.09836
  73        4XY        -0.01179  -0.00278   0.00000   0.00000   0.00000
  74        4XZ        -0.03431   0.04390   0.00000   0.00000   0.00000
  75        4YZ         0.00000   0.00000   0.00057   0.05609  -0.02012
  76 6   H  1S          0.00000   0.00000  -0.09678  -0.01012  -0.04666
  77        2S          0.00000   0.00000  -0.51363   0.25085  -0.12218
  78 7   H  1S          0.00000   0.00000   0.09678  -0.01012  -0.04666
  79        2S          0.00000   0.00000   0.51363   0.25085  -0.12218
  80 8   H  1S          0.00000   0.00000  -0.34768   0.17291  -0.42160
  81        2S          0.00000   0.00000   0.74733  -0.15770   0.17523
  82 9   H  1S          0.00000   0.00000   0.34768   0.17291  -0.42160
  83        2S          0.00000   0.00000  -0.74733  -0.15770   0.17523
                          36        37        38        39        40
                        (B1)--V   (B2)--V   (A1)--V   (A2)--V   (B2)--V
     Eigenvalues --     0.67616   0.69673   0.73888   0.74293   0.86370
   1 1   O  1S          0.00000   0.00000   0.00810   0.00000   0.00000
   2        2S          0.00000   0.00000  -0.16527   0.00000   0.00000
   3        2PX         0.05753   0.00000   0.00000   0.00000   0.00000
   4        2PY         0.00000   0.04069   0.00000   0.00000  -0.00740
   5        2PZ         0.00000   0.00000  -0.19010   0.00000   0.00000
   6        3S          0.00000   0.00000   0.39655   0.00000   0.00000
   7        3PX         0.13610   0.00000   0.00000   0.00000   0.00000
   8        3PY         0.00000  -0.40073   0.00000   0.00000   0.00989
   9        3PZ         0.00000   0.00000  -0.14596   0.00000   0.00000
  10        4XX         0.00000   0.00000  -0.08883   0.00000   0.00000
  11        4YY         0.00000   0.00000   0.01195   0.00000   0.00000
  12        4ZZ         0.00000   0.00000  -0.06198   0.00000   0.00000
  13        4XY         0.00000   0.00000   0.00000   0.01645   0.00000
  14        4XZ        -0.05261   0.00000   0.00000   0.00000   0.00000
  15        4YZ         0.00000   0.10137   0.00000   0.00000  -0.02200
  16 2   C  1S          0.00000  -0.06275  -0.02266   0.00000   0.03432
  17        2S          0.00000  -0.40485   0.36800   0.00000  -0.02246
  18        2PX         0.43717   0.00000   0.00000   0.38508   0.00000
  19        2PY         0.00000   0.21361  -0.25837   0.00000  -0.48432
  20        2PZ         0.00000  -0.43211  -0.24804   0.00000  -0.39756
  21        3S          0.00000   1.80454  -0.54674   0.00000  -0.08475
  22        3PX        -0.71929   0.00000   0.00000  -0.80149   0.00000
  23        3PY         0.00000  -0.95964   0.60932   0.00000   1.66448
  24        3PZ         0.00000   0.16867   0.79334   0.00000   1.28622
  25        4XX         0.00000   0.03233   0.01204   0.00000  -0.03140
  26        4YY         0.00000  -0.05635  -0.04586   0.00000   0.06640
  27        4ZZ         0.00000  -0.07043   0.04747   0.00000  -0.06336
  28        4XY        -0.00670   0.00000   0.00000   0.00185   0.00000
  29        4XZ         0.02275   0.00000   0.00000   0.01743   0.00000
  30        4YZ         0.00000  -0.07554  -0.05858   0.00000   0.05708
  31 3   C  1S          0.00000   0.06275  -0.02266   0.00000  -0.03432
  32        2S          0.00000   0.40485   0.36800   0.00000   0.02246
  33        2PX         0.43717   0.00000   0.00000  -0.38508   0.00000
  34        2PY         0.00000   0.21361   0.25837   0.00000  -0.48432
  35        2PZ         0.00000   0.43211  -0.24804   0.00000   0.39756
  36        3S          0.00000  -1.80454  -0.54674   0.00000   0.08475
  37        3PX        -0.71929   0.00000   0.00000   0.80149   0.00000
  38        3PY         0.00000  -0.95964  -0.60932   0.00000   1.66448
  39        3PZ         0.00000  -0.16867   0.79334   0.00000  -1.28622
  40        4XX         0.00000  -0.03233   0.01204   0.00000   0.03140
  41        4YY         0.00000   0.05635  -0.04586   0.00000  -0.06640
  42        4ZZ         0.00000   0.07043   0.04747   0.00000   0.06336
  43        4XY         0.00670   0.00000   0.00000   0.00185   0.00000
  44        4XZ         0.02275   0.00000   0.00000  -0.01743   0.00000
  45        4YZ         0.00000  -0.07554   0.05858   0.00000   0.05708
  46 4   C  1S          0.00000   0.03068   0.01471   0.00000   0.03675
  47        2S          0.00000  -0.24693   0.33671   0.00000   0.04931
  48        2PX        -0.61859   0.00000   0.00000  -0.68208   0.00000
  49        2PY         0.00000  -0.20650  -0.22186   0.00000  -0.40446
  50        2PZ         0.00000  -0.26278   0.05183   0.00000   0.09387
  51        3S          0.00000  -0.67743   0.35867   0.00000   0.06734
  52        3PX         0.76249   0.00000   0.00000   1.31624   0.00000
  53        3PY         0.00000   0.44349   0.29199   0.00000   1.41576
  54        3PZ         0.00000  -0.65760   0.13091   0.00000  -0.21096
  55        4XX         0.00000  -0.01134  -0.04006   0.00000  -0.03284
  56        4YY         0.00000  -0.03774   0.06545   0.00000  -0.05568
  57        4ZZ         0.00000   0.02006   0.06315   0.00000   0.10514
  58        4XY         0.04249   0.00000   0.00000  -0.00377   0.00000
  59        4XZ        -0.01057   0.00000   0.00000   0.00221   0.00000
  60        4YZ         0.00000   0.03503   0.09778   0.00000  -0.03561
  61 5   C  1S          0.00000  -0.03068   0.01471   0.00000  -0.03675
  62        2S          0.00000   0.24693   0.33671   0.00000  -0.04931
  63        2PX        -0.61859   0.00000   0.00000   0.68208   0.00000
  64        2PY         0.00000  -0.20650   0.22186   0.00000  -0.40446
  65        2PZ         0.00000   0.26278   0.05183   0.00000  -0.09387
  66        3S          0.00000   0.67743   0.35867   0.00000  -0.06734
  67        3PX         0.76249   0.00000   0.00000  -1.31624   0.00000
  68        3PY         0.00000   0.44349  -0.29199   0.00000   1.41576
  69        3PZ         0.00000   0.65760   0.13091   0.00000   0.21096
  70        4XX         0.00000   0.01134  -0.04006   0.00000   0.03284
  71        4YY         0.00000   0.03774   0.06545   0.00000   0.05568
  72        4ZZ         0.00000  -0.02006   0.06315   0.00000  -0.10514
  73        4XY        -0.04249   0.00000   0.00000  -0.00377   0.00000
  74        4XZ        -0.01057   0.00000   0.00000  -0.00221   0.00000
  75        4YZ         0.00000   0.03503  -0.09778   0.00000  -0.03561
  76 6   H  1S          0.00000  -0.43148  -0.38861   0.00000   0.25019
  77        2S          0.00000   0.40173  -0.08860   0.00000  -1.60183
  78 7   H  1S          0.00000   0.43148  -0.38861   0.00000  -0.25019
  79        2S          0.00000  -0.40173  -0.08860   0.00000   1.60183
  80 8   H  1S          0.00000  -0.01371  -0.16966   0.00000   0.24730
  81        2S          0.00000  -0.30978   0.14727   0.00000  -0.91856
  82 9   H  1S          0.00000   0.01371  -0.16966   0.00000  -0.24730
  83        2S          0.00000   0.30978   0.14727   0.00000   0.91856
                          41        42        43        44        45
                        (A1)--V   (B2)--V   (A1)--V   (B2)--V   (B1)--V
     Eigenvalues --     0.89440   0.90898   0.96973   0.97273   1.05097
   1 1   O  1S         -0.00508   0.00000  -0.01174   0.00000   0.00000
   2        2S         -0.12810   0.00000  -0.11473   0.00000   0.00000
   3        2PX         0.00000   0.00000   0.00000   0.00000  -0.93974
   4        2PY         0.00000  -0.04060   0.00000   0.04638   0.00000
   5        2PZ         0.06287   0.00000  -0.00912   0.00000   0.00000
   6        3S          0.89977   0.00000   0.31127   0.00000   0.00000
   7        3PX         0.00000   0.00000   0.00000   0.00000   1.31785
   8        3PY         0.00000   0.19265   0.00000  -0.16816   0.00000
   9        3PZ        -0.36972   0.00000  -0.27864   0.00000   0.00000
  10        4XX        -0.06579   0.00000  -0.05909   0.00000   0.00000
  11        4YY        -0.09799   0.00000  -0.08356   0.00000   0.00000
  12        4ZZ         0.08977   0.00000   0.03299   0.00000   0.00000
  13        4XY         0.00000   0.00000   0.00000   0.00000   0.00000
  14        4XZ         0.00000   0.00000   0.00000   0.00000   0.02043
  15        4YZ         0.00000  -0.06190   0.00000   0.02035   0.00000
  16 2   C  1S          0.00650  -0.00027   0.00341  -0.00320   0.00000
  17        2S         -0.07457  -0.13569  -0.46710  -0.82102   0.00000
  18        2PX         0.00000   0.00000   0.00000   0.00000   0.04852
  19        2PY        -0.42872  -0.44214  -0.40862  -0.20983   0.00000
  20        2PZ        -0.33736  -0.17036  -0.19696   0.12373   0.00000
  21        3S         -0.94853  -1.39669   1.11582   3.06763   0.00000
  22        3PX         0.00000   0.00000   0.00000   0.00000  -0.45809
  23        3PY         1.82779   2.46569   0.78757   0.52385   0.00000
  24        3PZ         1.35145   1.10250   0.54449  -0.77039   0.00000
  25        4XX        -0.00373   0.01294  -0.06676  -0.02195   0.00000
  26        4YY         0.03056  -0.02669   0.05052  -0.07948   0.00000
  27        4ZZ        -0.09223  -0.08158  -0.04844   0.01567   0.00000
  28        4XY         0.00000   0.00000   0.00000   0.00000  -0.04557
  29        4XZ         0.00000   0.00000   0.00000   0.00000   0.02958
  30        4YZ         0.01483  -0.04642   0.07302   0.00679   0.00000
  31 3   C  1S          0.00650   0.00027   0.00341   0.00320   0.00000
  32        2S         -0.07457   0.13569  -0.46710   0.82102   0.00000
  33        2PX         0.00000   0.00000   0.00000   0.00000   0.04852
  34        2PY         0.42872  -0.44214   0.40862  -0.20983   0.00000
  35        2PZ        -0.33736   0.17036  -0.19696  -0.12373   0.00000
  36        3S         -0.94853   1.39669   1.11582  -3.06763   0.00000
  37        3PX         0.00000   0.00000   0.00000   0.00000  -0.45809
  38        3PY        -1.82779   2.46569  -0.78757   0.52385   0.00000
  39        3PZ         1.35145  -1.10250   0.54449   0.77039   0.00000
  40        4XX        -0.00373  -0.01294  -0.06676   0.02195   0.00000
  41        4YY         0.03056   0.02669   0.05052   0.07948   0.00000
  42        4ZZ        -0.09223   0.08158  -0.04844  -0.01567   0.00000
  43        4XY         0.00000   0.00000   0.00000   0.00000   0.04557
  44        4XZ         0.00000   0.00000   0.00000   0.00000   0.02958
  45        4YZ        -0.01483  -0.04642  -0.07302   0.00679   0.00000
  46 4   C  1S         -0.02806  -0.00875   0.01571  -0.01020   0.00000
  47        2S         -0.15292   0.00351  -0.41808  -0.52547   0.00000
  48        2PX         0.00000   0.00000   0.00000   0.00000  -0.01694
  49        2PY         0.28299   0.52207  -0.30892   0.29191   0.00000
  50        2PZ        -0.50242  -0.53025   0.38658   0.52033   0.00000
  51        3S          0.90951   3.02809   1.35808   1.29131   0.00000
  52        3PX         0.00000   0.00000   0.00000   0.00000   0.12371
  53        3PY        -0.86512  -2.87940   0.62907  -1.61896   0.00000
  54        3PZ         1.86566   2.89531  -0.72690  -2.33980   0.00000
  55        4XX         0.01806  -0.02140  -0.07161   0.00048   0.00000
  56        4YY        -0.06906   0.08667  -0.01224   0.01762   0.00000
  57        4ZZ         0.05901   0.04523   0.03948  -0.11587   0.00000
  58        4XY         0.00000   0.00000   0.00000   0.00000  -0.07110
  59        4XZ         0.00000   0.00000   0.00000   0.00000  -0.01329
  60        4YZ         0.07640   0.00763  -0.10071  -0.00650   0.00000
  61 5   C  1S         -0.02806   0.00875   0.01571   0.01020   0.00000
  62        2S         -0.15292  -0.00351  -0.41808   0.52547   0.00000
  63        2PX         0.00000   0.00000   0.00000   0.00000  -0.01694
  64        2PY        -0.28299   0.52207   0.30892   0.29191   0.00000
  65        2PZ        -0.50242   0.53025   0.38658  -0.52033   0.00000
  66        3S          0.90951  -3.02809   1.35808  -1.29131   0.00000
  67        3PX         0.00000   0.00000   0.00000   0.00000   0.12371
  68        3PY         0.86512  -2.87940  -0.62907  -1.61896   0.00000
  69        3PZ         1.86566  -2.89531  -0.72690   2.33980   0.00000
  70        4XX         0.01806   0.02140  -0.07161  -0.00048   0.00000
  71        4YY        -0.06906  -0.08667  -0.01224  -0.01762   0.00000
  72        4ZZ         0.05901  -0.04523   0.03948   0.11587   0.00000
  73        4XY         0.00000   0.00000   0.00000   0.00000   0.07110
  74        4XZ         0.00000   0.00000   0.00000   0.00000  -0.01329
  75        4YZ        -0.07640   0.00763   0.10071  -0.00650   0.00000
  76 6   H  1S          0.28067   0.05072   0.26552  -0.01912   0.00000
  77        2S         -1.44944  -1.36834  -1.17628  -0.64868   0.00000
  78 7   H  1S          0.28067  -0.05072   0.26552   0.01912   0.00000
  79        2S         -1.44944   1.36834  -1.17628   0.64868   0.00000
  80 8   H  1S         -0.24998  -0.16081   0.24794  -0.02905   0.00000
  81        2S          1.32143   1.98580  -1.23366  -0.76617   0.00000
  82 9   H  1S         -0.24998   0.16081   0.24794   0.02905   0.00000
  83        2S          1.32143  -1.98580  -1.23366   0.76617   0.00000
                          46        47        48        49        50
                        (A1)--V   (A1)--V   (B2)--V   (B2)--V   (A1)--V
     Eigenvalues --     1.05288   1.08380   1.10477   1.20492   1.20904
   1 1   O  1S         -0.00540   0.00638   0.00000   0.00000  -0.00807
   2        2S          0.06335   0.69688   0.00000   0.00000   0.18378
   3        2PX         0.00000   0.00000   0.00000   0.00000   0.00000
   4        2PY         0.00000   0.00000  -0.54444  -0.25668   0.00000
   5        2PZ         0.11329   0.59962   0.00000   0.00000  -0.27725
   6        3S         -0.27111  -1.40006   0.00000   0.00000   0.71267
   7        3PX         0.00000   0.00000   0.00000   0.00000   0.00000
   8        3PY         0.00000   0.00000   1.64501   0.55708   0.00000
   9        3PZ        -0.15629  -1.29827   0.00000   0.00000   0.03311
  10        4XX         0.11869   0.26898   0.00000   0.00000  -0.09694
  11        4YY         0.03220   0.28845   0.00000   0.00000   0.12557
  12        4ZZ        -0.09170   0.12316   0.00000   0.00000   0.09521
  13        4XY         0.00000   0.00000   0.00000   0.00000   0.00000
  14        4XZ         0.00000   0.00000   0.00000   0.00000   0.00000
  15        4YZ         0.00000   0.00000  -0.01747  -0.04487   0.00000
  16 2   C  1S         -0.01602  -0.01036   0.00320   0.01670   0.00208
  17        2S         -0.96467   0.00593   0.28351   0.78625   0.01329
  18        2PX         0.00000   0.00000   0.00000   0.00000   0.00000
  19        2PY        -0.13098   0.13569  -0.07490  -0.12176  -0.04840
  20        2PZ         0.11759  -0.31139   0.08596  -0.26603  -0.02991
  21        3S          3.12258  -1.05133  -0.76086  -1.66474  -0.60927
  22        3PX         0.00000   0.00000   0.00000   0.00000   0.00000
  23        3PY         0.42657   0.40980   2.12330   0.53311   1.81641
  24        3PZ        -0.81251   1.58208  -0.59069   0.54382   0.61172
  25        4XX        -0.02232   0.07072  -0.00784  -0.02372   0.02016
  26        4YY        -0.12864  -0.14823  -0.10939   0.04305  -0.02151
  27        4ZZ         0.00743  -0.00881   0.06582   0.03420  -0.00966
  28        4XY         0.00000   0.00000   0.00000   0.00000   0.00000
  29        4XZ         0.00000   0.00000   0.00000   0.00000   0.00000
  30        4YZ         0.00259   0.00231   0.06625  -0.00412  -0.05718
  31 3   C  1S         -0.01602  -0.01036  -0.00320  -0.01670   0.00208
  32        2S         -0.96467   0.00593  -0.28351  -0.78625   0.01329
  33        2PX         0.00000   0.00000   0.00000   0.00000   0.00000
  34        2PY         0.13098  -0.13569  -0.07490  -0.12176   0.04840
  35        2PZ         0.11759  -0.31139  -0.08596   0.26603  -0.02991
  36        3S          3.12258  -1.05133   0.76086   1.66474  -0.60927
  37        3PX         0.00000   0.00000   0.00000   0.00000   0.00000
  38        3PY        -0.42657  -0.40980   2.12330   0.53311  -1.81641
  39        3PZ        -0.81251   1.58208   0.59069  -0.54382   0.61172
  40        4XX        -0.02232   0.07072   0.00784   0.02372   0.02016
  41        4YY        -0.12864  -0.14823   0.10939  -0.04305  -0.02151
  42        4ZZ         0.00743  -0.00881  -0.06582  -0.03420  -0.00966
  43        4XY         0.00000   0.00000   0.00000   0.00000   0.00000
  44        4XZ         0.00000   0.00000   0.00000   0.00000   0.00000
  45        4YZ        -0.00259  -0.00231   0.06625  -0.00412   0.05718
  46 4   C  1S          0.01803  -0.00602   0.00961  -0.00580  -0.01880
  47        2S          0.93469  -0.37089   0.56377  -0.67792  -0.42157
  48        2PX         0.00000   0.00000   0.00000   0.00000   0.00000
  49        2PY         0.22167  -0.06996   0.05350   0.08383   0.29205
  50        2PZ         0.08202  -0.00369   0.22303  -0.00092   0.00271
  51        3S         -2.93972   1.92903  -0.15898   2.42300   0.54681
  52        3PX         0.00000   0.00000   0.00000   0.00000   0.00000
  53        3PY        -0.90713   0.35220  -1.21747   0.32985  -1.45573
  54        3PZ        -0.65744   0.66095  -0.50253  -1.06363   1.34394
  55        4XX         0.01436   0.00835  -0.02853  -0.02590   0.04187
  56        4YY         0.10420  -0.05431   0.03420  -0.02674  -0.12354
  57        4ZZ         0.01318   0.01055   0.07807  -0.02302   0.03232
  58        4XY         0.00000   0.00000   0.00000   0.00000   0.00000
  59        4XZ         0.00000   0.00000   0.00000   0.00000   0.00000
  60        4YZ        -0.04872   0.04192  -0.00358   0.09183  -0.08827
  61 5   C  1S          0.01803  -0.00602  -0.00961   0.00580  -0.01880
  62        2S          0.93469  -0.37089  -0.56377   0.67792  -0.42157
  63        2PX         0.00000   0.00000   0.00000   0.00000   0.00000
  64        2PY        -0.22167   0.06996   0.05350   0.08383  -0.29205
  65        2PZ         0.08202  -0.00369  -0.22303   0.00092   0.00271
  66        3S         -2.93972   1.92903   0.15898  -2.42300   0.54681
  67        3PX         0.00000   0.00000   0.00000   0.00000   0.00000
  68        3PY         0.90713  -0.35220  -1.21747   0.32985   1.45573
  69        3PZ        -0.65744   0.66095   0.50253   1.06363   1.34394
  70        4XX         0.01436   0.00835   0.02853   0.02590   0.04187
  71        4YY         0.10420  -0.05431  -0.03420   0.02674  -0.12354
  72        4ZZ         0.01318   0.01055  -0.07807   0.02302   0.03232
  73        4XY         0.00000   0.00000   0.00000   0.00000   0.00000
  74        4XZ         0.00000   0.00000   0.00000   0.00000   0.00000
  75        4YZ         0.04872  -0.04192  -0.00358   0.09183   0.08827
  76 6   H  1S         -0.09903  -0.17728  -0.55819   0.05225  -0.49768
  77        2S         -0.61183  -0.27271  -0.39178  -0.06029  -0.66761
  78 7   H  1S         -0.09903  -0.17728   0.55819  -0.05225  -0.49768
  79        2S         -0.61183  -0.27271   0.39178   0.06029  -0.66761
  80 8   H  1S          0.03336   0.01043   0.09585  -0.64644   0.56315
  81        2S          0.54046  -0.10215   0.16372  -0.69282   0.61682
  82 9   H  1S          0.03336   0.01043  -0.09585   0.64644   0.56315
  83        2S          0.54046  -0.10215  -0.16372   0.69282   0.61682
                          51        52        53        54        55
                        (B1)--V   (A2)--V   (B2)--V   (B1)--V   (B2)--V
     Eigenvalues --     1.41665   1.44744   1.45473   1.46721   1.60296
   1 1   O  1S          0.00000   0.00000   0.00000   0.00000   0.00000
   2        2S          0.00000   0.00000   0.00000   0.00000   0.00000
   3        2PX        -0.02996   0.00000   0.00000  -0.12157   0.00000
   4        2PY         0.00000   0.00000  -0.54613   0.00000   0.30245
   5        2PZ         0.00000   0.00000   0.00000   0.00000   0.00000
   6        3S          0.00000   0.00000   0.00000   0.00000   0.00000
   7        3PX         0.15762   0.00000   0.00000   0.37141   0.00000
[...]
  59        4XZ         0.00000   0.00000   0.00000   0.00000   0.00000
  60        4YZ         0.00000   0.00000   0.00000   0.00000   0.00000
  61 5   C  1S          0.00000  -0.00038   0.00000  -0.00218   0.00000
  62        2S         -0.00038   0.00826   0.00000   0.03588   0.00000
  63        2PX         0.00000   0.00000   0.01345   0.00000   0.00000
  64        2PY        -0.00218   0.03588   0.00000   0.09386   0.00000
  65        2PZ         0.00000   0.00000   0.00000   0.00000   0.00159
  66        3S         -0.00037   0.01315   0.00000   0.02680   0.00000
  67        3PX         0.00000   0.00000   0.01994   0.00000   0.00000
  68        3PY        -0.00132   0.02031   0.00000   0.02014   0.00000
  69        3PZ         0.00000   0.00000   0.00000   0.00000   0.01054
  70        4XX         0.00000  -0.00028   0.00000  -0.00071   0.00000
  71        4YY        -0.00023   0.00347   0.00000   0.00280   0.00000
  72        4ZZ         0.00000  -0.00051   0.00000  -0.00128   0.00000
  73        4XY         0.00000   0.00000   0.00206   0.00000   0.00000
  74        4XZ         0.00000   0.00000   0.00000   0.00000   0.00000
  75        4YZ         0.00000   0.00000   0.00000   0.00000   0.00180
  76 6   H  1S          0.00000  -0.00015   0.00000  -0.00020  -0.00038
  77        2S          0.00019  -0.00287   0.00000  -0.00354  -0.00540
  78 7   H  1S          0.00000   0.00000   0.00000   0.00000   0.00000
  79        2S          0.00000   0.00015   0.00000   0.00048   0.00001
  80 8   H  1S         -0.00216   0.03303   0.00000   0.03551   0.06223
  81        2S         -0.00172   0.01672   0.00000   0.02200   0.03858
  82 9   H  1S          0.00000  -0.00011   0.00000  -0.00038  -0.00008
  83        2S          0.00014  -0.00201   0.00000  -0.00616  -0.00158
                          51        52        53        54        55
  51        3S          0.22617
  52        3PX         0.00000   0.17528
  53        3PY         0.00000   0.00000   0.04815
  54        3PZ         0.00000   0.00000   0.00000   0.04419
  55        4XX        -0.00755   0.00000   0.00000   0.00000   0.00101
  56        4YY         0.00003   0.00000   0.00000   0.00000   0.00007
  57        4ZZ         0.00164   0.00000   0.00000   0.00000  -0.00001
  58        4XY         0.00000   0.00000   0.00000   0.00000   0.00000
  59        4XZ         0.00000   0.00000   0.00000   0.00000   0.00000
  60        4YZ         0.00000   0.00000   0.00000   0.00000   0.00000
  61 5   C  1S         -0.00037   0.00000  -0.00132   0.00000   0.00000
  62        2S          0.01315   0.00000   0.02031   0.00000  -0.00028
  63        2PX         0.00000   0.01994   0.00000   0.00000   0.00000
  64        2PY         0.02680   0.00000   0.02014   0.00000  -0.00071
  65        2PZ         0.00000   0.00000   0.00000   0.01054   0.00000
  66        3S          0.01431   0.00000   0.01193   0.00000  -0.00063
  67        3PX         0.00000   0.03043   0.00000   0.00000   0.00000
  68        3PY         0.01193   0.00000   0.00426   0.00000  -0.00061
  69        3PZ         0.00000   0.00000   0.00000   0.01291   0.00000
  70        4XX        -0.00063   0.00000  -0.00061   0.00000   0.00002
  71        4YY         0.00291   0.00000   0.00090   0.00000  -0.00006
  72        4ZZ        -0.00147   0.00000  -0.00156   0.00000   0.00000
  73        4XY         0.00000   0.00154   0.00000   0.00000   0.00000
  74        4XZ         0.00000   0.00000   0.00000   0.00000   0.00000
  75        4YZ         0.00000   0.00000   0.00000   0.00033   0.00000
  76 6   H  1S         -0.00289   0.00000  -0.00193  -0.00248   0.00000
  77        2S         -0.01031   0.00000  -0.00583  -0.00806   0.00009
  78 7   H  1S          0.00008   0.00000   0.00020  -0.00006   0.00000
  79        2S          0.00102   0.00000   0.00223  -0.00061   0.00000
  80 8   H  1S          0.04410   0.00000   0.01638   0.02582  -0.00078
  81        2S          0.03373   0.00000   0.01456   0.02122  -0.00090
  82 9   H  1S         -0.00267   0.00000  -0.00220  -0.00003   0.00000
  83        2S         -0.01103   0.00000  -0.00797  -0.00047   0.00006
                          56        57        58        59        60
  56        4YY         0.00119
  57        4ZZ        -0.00021   0.00110
  58        4XY         0.00000   0.00000   0.00062
  59        4XZ         0.00000   0.00000   0.00000   0.00067
  60        4YZ         0.00000   0.00000   0.00000   0.00000   0.00142
  61 5   C  1S         -0.00023   0.00000   0.00000   0.00000   0.00000
  62        2S          0.00347  -0.00051   0.00000   0.00000   0.00000
  63        2PX         0.00000   0.00000   0.00206   0.00000   0.00000
  64        2PY         0.00280  -0.00128   0.00000   0.00000   0.00000
  65        2PZ         0.00000   0.00000   0.00000   0.00000   0.00180
  66        3S          0.00291  -0.00147   0.00000   0.00000   0.00000
  67        3PX         0.00000   0.00000   0.00154   0.00000   0.00000
  68        3PY         0.00090  -0.00156   0.00000   0.00000   0.00000
  69        3PZ         0.00000   0.00000   0.00000   0.00000   0.00033
  70        4XX        -0.00006   0.00000   0.00000   0.00000   0.00000
  71        4YY        -0.00006  -0.00001   0.00000   0.00000   0.00000
  72        4ZZ        -0.00001   0.00002   0.00000   0.00000   0.00000
  73        4XY         0.00000   0.00000  -0.00002   0.00000   0.00000
  74        4XZ         0.00000   0.00000   0.00000  -0.00001   0.00000
  75        4YZ         0.00000   0.00000   0.00000   0.00000  -0.00024
  76 6   H  1S          0.00002  -0.00002   0.00000   0.00000   0.00003
  77        2S          0.00046  -0.00047   0.00000   0.00000   0.00010
  78 7   H  1S          0.00000   0.00000   0.00000   0.00000   0.00000
  79        2S         -0.00001   0.00000   0.00000   0.00000  -0.00001
  80 8   H  1S          0.00001   0.00179   0.00000   0.00000   0.00381
  81        2S          0.00018   0.00178   0.00000   0.00000   0.00075
  82 9   H  1S          0.00000   0.00000   0.00000   0.00000   0.00004
  83        2S         -0.00034   0.00021   0.00000   0.00000   0.00023
                          61        62        63        64        65
  61 5   C  1S          2.05209
  62        2S         -0.01302   0.31750
  63        2PX         0.00000   0.00000   0.35683
  64        2PY         0.00000   0.00000   0.00000   0.40755
  65        2PZ         0.00000   0.00000   0.00000   0.00000   0.42235
  66        3S         -0.03020   0.19921   0.00000   0.00000   0.00000
  67        3PX         0.00000   0.00000   0.14170   0.00000   0.00000
  68        3PY         0.00000   0.00000   0.00000   0.07609   0.00000
  69        3PZ         0.00000   0.00000   0.00000   0.00000   0.06781
  70        4XX        -0.00087  -0.01184   0.00000   0.00000   0.00000
  71        4YY        -0.00143  -0.00141   0.00000   0.00000   0.00000
  72        4ZZ        -0.00157   0.00145   0.00000   0.00000   0.00000
  73        4XY         0.00000   0.00000   0.00000   0.00000   0.00000
  74        4XZ         0.00000   0.00000   0.00000   0.00000   0.00000
  75        4YZ         0.00000   0.00000   0.00000   0.00000   0.00000
  76 6   H  1S          0.00000   0.00000   0.00000   0.00000   0.00000
  77        2S          0.00000   0.00015   0.00000   0.00048   0.00001
  78 7   H  1S          0.00000  -0.00015   0.00000  -0.00020  -0.00038
  79        2S          0.00019  -0.00287   0.00000  -0.00354  -0.00540
  80 8   H  1S          0.00000  -0.00011   0.00000  -0.00038  -0.00008
  81        2S          0.00014  -0.00201   0.00000  -0.00616  -0.00158
  82 9   H  1S         -0.00216   0.03303   0.00000   0.03551   0.06223
  83        2S         -0.00172   0.01672   0.00000   0.02200   0.03858
                          66        67        68        69        70
  66        3S          0.22617
  67        3PX         0.00000   0.17528
  68        3PY         0.00000   0.00000   0.04815
  69        3PZ         0.00000   0.00000   0.00000   0.04419
  70        4XX        -0.00755   0.00000   0.00000   0.00000   0.00101
  71        4YY         0.00003   0.00000   0.00000   0.00000   0.00007
  72        4ZZ         0.00164   0.00000   0.00000   0.00000  -0.00001
  73        4XY         0.00000   0.00000   0.00000   0.00000   0.00000
  74        4XZ         0.00000   0.00000   0.00000   0.00000   0.00000
  75        4YZ         0.00000   0.00000   0.00000   0.00000   0.00000
  76 6   H  1S          0.00008   0.00000   0.00020  -0.00006   0.00000
  77        2S          0.00102   0.00000   0.00223  -0.00061   0.00000
  78 7   H  1S         -0.00289   0.00000  -0.00193  -0.00248   0.00000
  79        2S         -0.01031   0.00000  -0.00583  -0.00806   0.00009
  80 8   H  1S         -0.00267   0.00000  -0.00220  -0.00003   0.00000
  81        2S         -0.01103   0.00000  -0.00797  -0.00047   0.00006
  82 9   H  1S          0.04410   0.00000   0.01638   0.02582  -0.00078
  83        2S          0.03373   0.00000   0.01456   0.02122  -0.00090
                          71        72        73        74        75
  71        4YY         0.00119
  72        4ZZ        -0.00021   0.00110
  73        4XY         0.00000   0.00000   0.00062
  74        4XZ         0.00000   0.00000   0.00000   0.00067
  75        4YZ         0.00000   0.00000   0.00000   0.00000   0.00142
  76 6   H  1S          0.00000   0.00000   0.00000   0.00000   0.00000
  77        2S         -0.00001   0.00000   0.00000   0.00000  -0.00001
  78 7   H  1S          0.00002  -0.00002   0.00000   0.00000   0.00003
  79        2S          0.00046  -0.00047   0.00000   0.00000   0.00010
  80 8   H  1S          0.00000   0.00000   0.00000   0.00000   0.00004
  81        2S         -0.00034   0.00021   0.00000   0.00000   0.00023
  82 9   H  1S          0.00001   0.00179   0.00000   0.00000   0.00381
  83        2S          0.00018   0.00178   0.00000   0.00000   0.00075
                          76        77        78        79        80
  76 6   H  1S          0.20989
  77        2S          0.10030   0.12430
  78 7   H  1S          0.00000   0.00000   0.20989
  79        2S          0.00000  -0.00014   0.10030   0.12430
  80 8   H  1S          0.00000  -0.00016   0.00000   0.00000   0.20851
  81        2S         -0.00007  -0.00026   0.00000  -0.00011   0.10439
  82 9   H  1S          0.00000   0.00000   0.00000  -0.00016   0.00000
  83        2S          0.00000  -0.00011  -0.00007  -0.00026  -0.00025
                          81        82        83
  81        2S          0.13607
  82 9   H  1S         -0.00025   0.20851
  83        2S         -0.00146   0.10439   0.13607
     Gross orbital populations:
                           1
   1 1   O  1S          1.99239
   2        2S          0.90322
   3        2PX         1.02477
   4        2PY         0.85266
   5        2PZ         1.04584
   6        3S          0.95532
   7        3PX         0.64593
   8        3PY         0.37641
   9        3PZ         0.57349
  10        4XX        -0.01196
  11        4YY         0.01050
  12        4ZZ        -0.00494
  13        4XY         0.00844
  14        4XZ         0.00548
  15        4YZ         0.01375
  16 2   C  1S          1.99170
  17        2S          0.70369
  18        2PX         0.63635
  19        2PY         0.67071
  20        2PZ         0.73167
  21        3S          0.45429
  22        3PX         0.43056
  23        3PY         0.13045
  24        3PZ         0.14165
  25        4XX        -0.02712
  26        4YY         0.01647
  27        4ZZ         0.00247
  28        4XY         0.00574
  29        4XZ         0.01039
  30        4YZ         0.02715
  31 3   C  1S          1.99170
  32        2S          0.70369
  33        2PX         0.63635
  34        2PY         0.67071
  35        2PZ         0.73167
  36        3S          0.45429
  37        3PX         0.43056
  38        3PY         0.13045
  39        3PZ         0.14165
  40        4XX        -0.02712
  41        4YY         0.01647
  42        4ZZ         0.00247
  43        4XY         0.00574
  44        4XZ         0.01039
  45        4YZ         0.02715
  46 4   C  1S          1.99179
  47        2S          0.69604
  48        2PX         0.60600
  49        2PY         0.73530
  50        2PZ         0.76168
  51        3S          0.51693
  52        3PX         0.45837
  53        3PY         0.20401
  54        3PZ         0.20345
  55        4XX        -0.02562
  56        4YY         0.00347
  57        4ZZ         0.01009
  58        4XY         0.00519
  59        4XZ         0.00510
  60        4YZ         0.01213
  61 5   C  1S          1.99179
  62        2S          0.69604
  63        2PX         0.60600
  64        2PY         0.73530
  65        2PZ         0.76168
  66        3S          0.51693
  67        3PX         0.45837
  68        3PY         0.20401
  69        3PZ         0.20345
  70        4XX        -0.02562
  71        4YY         0.00347
  72        4ZZ         0.01009
  73        4XY         0.00519
  74        4XZ         0.00510
  75        4YZ         0.01213
  76 6   H  1S          0.52317
  77        2S          0.31734
  78 7   H  1S          0.52317
  79        2S          0.31734
  80 8   H  1S          0.52107
  81        2S          0.33269
  82 9   H  1S          0.52107
  83        2S          0.33269
          Condensed to atoms (all electrons):
 Mulliken charges:
               1
     1  O   -0.391308
     2  C    0.073850
     3  C    0.073850
     4  C   -0.183928
     5  C   -0.183928
     6  H    0.159490
     7  H    0.159490
     8  H    0.146242
     9  H    0.146242
 Sum of Mulliken charges =   0.00000
 Mulliken charges with hydrogens summed into heavy atoms:
               1
     1  O   -0.391308
     2  C    0.233340
     3  C    0.233340
     4  C   -0.037686
     5  C   -0.037686
 Electronic spatial extent (au):  <R**2>=            288.4020
 Charge=              0.0000 electrons
 Dipole moment (field-independent basis, Debye):
    X=              0.0000    Y=              0.0000    Z=             -0.6279  Tot=              0.6279
 Orbital energies and kinetic energies (alpha):
                                 1                 2
   1         (A1)--O         -19.283578         29.028682
   2         (B2)--O         -10.303763         15.880392
   3         (A1)--O         -10.303734         15.879047
   4         (A1)--O         -10.255023         15.873341
   5         (B2)--O         -10.254605         15.882899
   6         (A1)--O          -1.188647          2.476312
   7         (A1)--O          -0.874487          1.784446
   8         (B2)--O          -0.820165          1.792138
   9         (B2)--O          -0.666977          1.666540
  10         (A1)--O          -0.637129          1.453771
  11         (A1)--O          -0.610010          1.304201
  12         (B1)--O          -0.516833          1.631512
  13         (B2)--O          -0.506220          1.564554
  14         (B2)--O          -0.471911          1.361164
  15         (A1)--O          -0.457470          1.551883
  16         (A1)--O          -0.431425          2.070031
  17         (B1)--O          -0.333230          1.525027
  18         (A2)--O          -0.281127          1.217205
  19         (B1)--V           0.074973          1.715172
  20         (A2)--V           0.136298          1.420552
  21         (A1)--V           0.170246          0.971471
  22         (A1)--V           0.198151          1.512591
  23         (B2)--V           0.208565          1.042063
  24         (B2)--V           0.219793          1.029607
  25         (A1)--V           0.252487          1.476862
  26         (B2)--V           0.266552          1.893263
  27         (A1)--V           0.371247          1.410102
  28         (B2)--V           0.435557          1.262372
  29         (B2)--V           0.502291          2.574981
  30         (A1)--V           0.574031          1.586962
  31         (B1)--V           0.592525          1.993398
  32         (A2)--V           0.643856          1.971243
  33         (B2)--V           0.648334          2.390178
  34         (A1)--V           0.649855          3.042162
  35         (A1)--V           0.659087          2.129320
  36         (B1)--V           0.676159          2.142081
  37         (B2)--V           0.696733          2.276870
  38         (A1)--V           0.738878          1.999957
  39         (A2)--V           0.742928          2.266556
  40         (B2)--V           0.863695          2.502397
  41         (A1)--V           0.894401          2.720718
  42         (B2)--V           0.908982          2.867749
  43         (A1)--V           0.969731          2.497717
  44         (B2)--V           0.972731          2.488487
  45         (B1)--V           1.050968          3.528590
  46         (A1)--V           1.052883          2.222221
  47         (A1)--V           1.083803          2.689816
  48         (B2)--V           1.104767          2.683269
  49         (B2)--V           1.204923          2.527719
  50         (A1)--V           1.209042          2.306871
  51         (B1)--V           1.416645          2.503259
  52         (A2)--V           1.447437          2.537007
  53         (B2)--V           1.454733          2.788391
  54         (B1)--V           1.467207          2.536797
  55         (B2)--V           1.602965          2.666607
  56         (A2)--V           1.630374          2.788645
  57         (B1)--V           1.641704          2.740484
  58         (A1)--V           1.642521          2.983681
  59         (A1)--V           1.752459          2.863906
  60         (A1)--V           1.920084          3.274278
  61         (A1)--V           2.012181          3.499224
  62         (B2)--V           2.097459          3.640602
  63         (A1)--V           2.138749          3.659917
  64         (B2)--V           2.172650          3.945775
  65         (A2)--V           2.275902          3.409120
  66         (A1)--V           2.303903          3.855583
  67         (B2)--V           2.340343          3.608467
  68         (B1)--V           2.341062          3.498600
  69         (A2)--V           2.401497          3.568151
  70         (B1)--V           2.481789          3.643318
  71         (A2)--V           2.661117          3.837317
  72         (A1)--V           2.698048          4.487109
  73         (B2)--V           2.706008          4.322811
  74         (A1)--V           2.786400          4.769650
  75         (B2)--V           2.863926          4.704728
  76         (A1)--V           3.024154          4.499661
  77         (B2)--V           3.035535          4.766700
  78         (B2)--V           3.182632          4.829110
  79         (A1)--V           4.013578         10.688964
  80         (B2)--V           4.222931         10.174114
  81         (A1)--V           4.229809         10.548443
  82         (A1)--V           4.358964          9.963790
  83         (B2)--V           4.535579         10.227651
 Total kinetic energy from orbitals= 2.278862893867D+02
 1\1\GINC-NODE16\SP\RCAM-B3LYP\6-31G(d)\C4H4O1\ROOT\05-Oct-2016\0\\#T C
 AM-B3LYP 6-31G* gfprint pop(full) Density\\\0,1\O,0,0.,1.37634178,0.\C
 ,0,1.089502,0.56802478,0.\C,0,-1.089502,0.56802478,0.\C,0,0.716333,-0.
 73371522,0.\C,0,-0.716333,-0.73371522,0.\H,0,2.044876,1.06901978,0.\H,
 0,-2.044876,1.06901978,0.\H,0,1.372873,-1.59150022,0.\H,0,-1.372873,-1
 .59150022,0.\\Version=ES64L-G09RevD.01\State=1-A1\HF=-229.9052107\RMSD
 =1.984e-09\Dipole=0.,-0.2470501,0.\Quadrupole=2.8209036,-0.1402058,-2.
 6806979,0.,0.,0.\PG=C02V [C2(O1),SGV(C4H4)]\\@


 IMAGINATION WILL OFTEN CARRY US TO WORLDS THAT NEVER WERE.
 BUT WITHOUT IT, WE GO NOWHERE. -- CARL SAGAN (COSMOS)
 Job cpu time:       0 days  0 hours  0 minutes  9.7 seconds.
 File lengths (MBytes):  RWF=      5 Int=      0 D2E=      0 Chk=      1 Scr=      1
 Normal termination of Gaussian 09 at Wed Oct  5 15:02:06 2016.
