 Entering Gaussian System

 Standard orientation:



 -------------------------------------------------------
     1   8    0     0.000000     0.000000     1.154745
     2   6    0     0.000000     1.089502     0.346428
     3   6    0     0.000000    -1.089502     0.346428
     4   6    0     0.000000     0.716333    -0.955312
     5   6    0     0.000000    -0.716333    -0.955312
     6   1    0     0.000000     2.044876     0.847423
     7   1    0     0.000000    -2.044876     0.847423
     8   1    0     0.000000     1.372873    -1.813097
     9   1    0     0.000000    -1.372873    -1.813097
 -------------------------------------------------------

 AO basis set (Overlap normalization):
 Atom  O1     Shell     1 S    6
   5.4846716600e+03   1.8310744300e-03
   8.2523494600e+02   1.3950172200e-02
   1.8804695800e+02   6.8445078100e-02
   5.2964500000e+01   2.3271433600e-01
   1.6897570400e+01   4.7019289800e-01
   5.7996353400e+00   3.5852085300e-01
 Atom  O1     Shell     2 SP   3
   1.5539616250e+01  -1.1077754950e-01   7.0874268230e-02
   3.5999335860e+00  -1.4802626270e-01   3.3975283910e-01
   1.0137617500e+00   1.1307670150e+00   7.2715857730e-01
 Atom  O1     Shell     3 SP   1
   2.7000582260e-01   1.0000000000e+00   1.0000000000e+00
 Atom  O1     Shell     4 D    1
   8.0000000000e-01   1.0000000000e+00
 Atom  C2     Shell     5 S    6
   3.0475248800e+03   1.8347371320e-03
   4.5736951800e+02   1.4037322810e-02
   1.0394868500e+02   6.8842622260e-02
   2.9210155300e+01   2.3218444320e-01
   9.2866629600e+00   4.6794134840e-01
   3.1639269600e+00   3.6231198530e-01
 Atom  C2     Shell     6 SP   3
   7.8682723500e+00  -1.1933241980e-01   6.8999066590e-02
   1.8812885400e+00  -1.6085415170e-01   3.1642396100e-01
   5.4424925800e-01   1.1434564380e+00   7.4430829090e-01
 Atom  C2     Shell     7 SP   1
   1.6871447820e-01   1.0000000000e+00   1.0000000000e+00
 Atom  C2     Shell     8 D    1
   8.0000000000e-01   1.0000000000e+00
 Atom  C3     Shell     9 S    6
   3.0475248800e+03   1.8347371320e-03
   4.5736951800e+02   1.4037322810e-02
   1.0394868500e+02   6.8842622260e-02
   2.9210155300e+01   2.3218444320e-01
   9.2866629600e+00   4.6794134840e-01
   3.1639269600e+00   3.6231198530e-01
 Atom  C3     Shell    10 SP   3
   7.8682723500e+00  -1.1933241980e-01   6.8999066590e-02
   1.8812885400e+00  -1.6085415170e-01   3.1642396100e-01
   5.4424925800e-01   1.1434564380e+00   7.4430829090e-01
 Atom  C3     Shell    11 SP   1
   1.6871447820e-01   1.0000000000e+00   1.0000000000e+00
 Atom  C3     Shell    12 D    1
   8.0000000000e-01   1.0000000000e+00
 Atom  C4     Shell    13 S    6
   3.0475248800e+03   1.8347371320e-03
   4.5736951800e+02   1.4037322810e-02
   1.0394868500e+02   6.8842622260e-02
   2.9210155300e+01   2.3218444320e-01
   9.2866629600e+00   4.6794134840e-01
   3.1639269600e+00   3.6231198530e-01
 Atom  C4     Shell    14 SP   3
   7.8682723500e+00  -1.1933241980e-01   6.8999066590e-02
   1.8812885400e+00  -1.6085415170e-01   3.1642396100e-01
   5.4424925800e-01   1.1434564380e+00   7.4430829090e-01
 Atom  C4     Shell    15 SP   1
   1.6871447820e-01   1.0000000000e+00   1.0000000000e+00
 Atom  C4     Shell    16 D    1
   8.0000000000e-01   1.0000000000e+00
 Atom  C5     Shell    17 S    6
   3.0475248800e+03   1.8347371320e-03
   4.5736951800e+02   1.4037322810e-02
   1.0394868500e+02   6.8842622260e-02
   2.9210155300e+01   2.3218444320e-01
   9.2866629600e+00   4.6794134840e-01
   3.1639269600e+00   3.6231198530e-01
 Atom  C5     Shell    18 SP   3
   7.8682723500e+00  -1.1933241980e-01   6.8999066590e-02
   1.8812885400e+00  -1.6085415170e-01   3.1642396100e-01
   5.4424925800e-01   1.1434564380e+00   7.4430829090e-01
 Atom  C5     Shell    19 SP   1
   1.6871447820e-01   1.0000000000e+00   1.0000000000e+00
 Atom  C5     Shell    20 D    1
   8.0000000000e-01   1.0000000000e+00
 Atom  H6     Shell    21 S    3
   1.8731136960e+01   3.3494604340e-02
   2.8253943650e+00   2.3472695350e-01
   6.4012169230e-01   8.1375732610e-01
 Atom  H6     Shell    22 S    1
   1.6127775880e-01   1.0000000000e+00
 Atom  H7     Shell    23 S    3
   1.8731136960e+01   3.3494604340e-02
   2.8253943650e+00   2.3472695350e-01
   6.4012169230e-01   8.1375732610e-01
 Atom  H7     Shell    24 S    1
   1.6127775880e-01   1.0000000000e+00
 Atom  H8     Shell    25 S    3
   1.8731136960e+01   3.3494604340e-02
   2.8253943650e+00   2.3472695350e-01
   6.4012169230e-01   8.1375732610e-01
 Atom  H8     Shell    26 S    1
   1.6127775880e-01   1.0000000000e+00
 Atom  H9     Shell    27 S    3
   1.8731136960e+01   3.3494604340e-02
   2.8253943650e+00   2.3472695350e-01
   6.4012169230e-01   8.1375732610e-01
 Atom  H9     Shell    28 S    1
   1.6127775880e-01   1.0000000000e+00

 Molecular Orbital Coefficients:
                           1         2         3         4         5
                           O         O         O         O         O    
     Eigenvalues --  -518.84906-277.09158-277.09158-275.27285-275.27285
    1 O1      .S        1.01132   0.00324   0.00324  -0.00057  -0.00057
    2 O1      .S       -0.02855  -0.00910  -0.00910   0.00240   0.00240
    3 O1      .X        0.00000  -0.00000   0.00000   0.00000   0.00000
    4 O1      .Y       -0.00000  -0.01663   0.01663  -0.00031   0.00031
    5 O1      .Z       -0.00353   0.01283   0.01283  -0.00350  -0.00350
    6 O1      .S       -0.04504  -0.00916  -0.00916  -0.00023  -0.00023
    7 O1      .X        0.00000  -0.00000   0.00000   0.00000   0.00000
    8 O1      .Y       -0.00000  -0.00843   0.00843   0.00082  -0.00082
    9 O1      .Z       -0.00340   0.00973   0.00973  -0.00196  -0.00196
   10 O1      .XX      -0.00695   0.00145   0.00145   0.00050   0.00050
   11 O1      .YY      -0.00853  -0.00071  -0.00071   0.00046   0.00046
   12 O1      .ZZ      -0.00744  -0.00107  -0.00107  -0.00010  -0.00010
   13 O1      .XY       0.00000   0.00000  -0.00000   0.00000  -0.00000
   14 O1      .XZ       0.00000   0.00000  -0.00000   0.00000   0.00000
   15 O1      .YZ       0.00000   0.00205  -0.00205  -0.00053   0.00053
   16 C2      .S        0.00192   1.00877  -0.00076  -0.00075   0.00464
   17 C2      .S       -0.00559   0.00424   0.00111   0.00168  -0.01543
   18 C2      .X       -0.00000   0.00000  -0.00000  -0.00000  -0.00000
   19 C2      .Y        0.00867  -0.00235  -0.00113  -0.00029   0.00613
   20 C2      .Z       -0.00660   0.00452   0.00042  -0.00042   0.02243
   21 C2      .S        0.00137  -0.04321   0.00959   0.00224   0.00012
   22 C2      .X       -0.00000   0.00000  -0.00000  -0.00000  -0.00000
   23 C2      .Y       -0.00075  -0.00513  -0.00592   0.00042  -0.00166
   24 C2      .Z       -0.00210   0.00407  -0.00426  -0.00174   0.00107
   25 C2      .XX       0.00086  -0.00713  -0.00017   0.00008   0.00069
   26 C2      .YY      -0.00096  -0.00941  -0.00078  -0.00030   0.00073
   27 C2      .ZZ      -0.00010  -0.00892   0.00051  -0.00015  -0.00148
   28 C2      .XY       0.00000   0.00000  -0.00000   0.00000   0.00000
   29 C2      .XZ       0.00000  -0.00000   0.00000  -0.00000   0.00000
   30 C2      .YZ       0.00195  -0.00085  -0.00027  -0.00075  -0.00119
   31 C3      .S        0.00192  -0.00076   1.00877   0.00464  -0.00075
   32 C3      .S       -0.00559   0.00111   0.00424  -0.01543   0.00168
   33 C3      .X       -0.00000  -0.00000   0.00000  -0.00000  -0.00000
   34 C3      .Y       -0.00867   0.00113   0.00235  -0.00613   0.00029
   35 C3      .Z       -0.00660   0.00042   0.00452   0.02243  -0.00042
   36 C3      .S        0.00137   0.00959  -0.04321   0.00012   0.00224
   37 C3      .X       -0.00000   0.00000  -0.00000  -0.00000   0.00000
   38 C3      .Y        0.00075   0.00592   0.00513   0.00166  -0.00042
   39 C3      .Z       -0.00210  -0.00426   0.00407   0.00107  -0.00174
   40 C3      .XX       0.00086  -0.00017  -0.00713   0.00069   0.00008
   41 C3      .YY      -0.00096  -0.00078  -0.00941   0.00073  -0.00030
   42 C3      .ZZ      -0.00010   0.00051  -0.00892  -0.00148  -0.00015
   43 C3      .XY      -0.00000  -0.00000   0.00000  -0.00000  -0.00000
   44 C3      .XZ       0.00000   0.00000   0.00000  -0.00000   0.00000
   45 C3      .YZ      -0.00195   0.00027   0.00085   0.00119   0.00075
   46 C4      .S       -0.00031   0.00479  -0.00041   0.00390   1.00962
   47 C4      .S        0.00072  -0.01476   0.00139  -0.01264   0.00245
   48 C4      .X       -0.00000  -0.00000  -0.00000   0.00000  -0.00000
   49 C4      .Y       -0.00060  -0.00656  -0.00002   0.02106   0.00037
   50 C4      .Z        0.00020  -0.02199  -0.00004   0.00084  -0.00116
   51 C4      .S       -0.00168  -0.00078  -0.00383  -0.00116  -0.05560
   52 C4      .X        0.00000  -0.00000   0.00000  -0.00000   0.00000
   53 C4      .Y       -0.00073   0.00006   0.00029   0.00172   0.00121
   54 C4      .Z       -0.00064  -0.00170  -0.00495   0.00052  -0.00054
   55 C4      .XX      -0.00004   0.00077   0.00020   0.00070  -0.00707
   56 C4      .YY       0.00005   0.00064  -0.00035  -0.00215  -0.00924
   57 C4      .ZZ      -0.00044  -0.00139  -0.00002   0.00062  -0.00963
   58 C4      .XY       0.00000   0.00000   0.00000  -0.00000   0.00000
   59 C4      .XZ       0.00000   0.00000  -0.00000   0.00000  -0.00000
   60 C4      .YZ       0.00001  -0.00075   0.00053   0.00023   0.00091
   61 C5      .S       -0.00031  -0.00041   0.00479   1.00962   0.00390
   62 C5      .S        0.00072   0.00139  -0.01476   0.00245  -0.01264
   63 C5      .X       -0.00000  -0.00000  -0.00000   0.00000  -0.00000
   64 C5      .Y        0.00060   0.00002   0.00656  -0.00037  -0.02106
   65 C5      .Z        0.00020  -0.00004  -0.02199  -0.00116   0.00084
   66 C5      .S       -0.00168  -0.00383  -0.00078  -0.05560  -0.00116
   67 C5      .X        0.00000   0.00000  -0.00000   0.00000   0.00000
   68 C5      .Y        0.00073  -0.00029  -0.00006  -0.00121  -0.00172
   69 C5      .Z       -0.00064  -0.00495  -0.00170  -0.00054   0.00052
   70 C5      .XX      -0.00004   0.00020   0.00077  -0.00707   0.00070
   71 C5      .YY       0.00005  -0.00035   0.00064  -0.00924  -0.00215
   72 C5      .ZZ      -0.00044  -0.00002  -0.00139  -0.00963   0.00062
   73 C5      .XY      -0.00000   0.00000  -0.00000   0.00000  -0.00000
   74 C5      .XZ      -0.00000  -0.00000   0.00000   0.00000  -0.00000
   75 C5      .YZ      -0.00001  -0.00053   0.00075  -0.00091  -0.00023
   76 H6      .S        0.00143  -0.01747  -0.00079  -0.00089   0.00255
   77 H6      .S        0.00245  -0.00403   0.00053  -0.00183   0.00438
   78 H7      .S        0.00143  -0.00079  -0.01747   0.00255  -0.00089
   79 H7      .S        0.00245   0.00053  -0.00403   0.00438  -0.00183
   80 H8      .S       -0.00024   0.00239  -0.00090   0.00195  -0.01819
   81 H8      .S       -0.00013   0.00411  -0.00305   0.00327  -0.00488
   82 H9      .S       -0.00024  -0.00090   0.00239  -0.01819   0.00195
   83 H9      .S       -0.00013  -0.00305   0.00411  -0.00488   0.00327
                           6         7         8         9        10
                           O         O         O         O         O    
     Eigenvalues --   -26.39689 -26.39689 -21.70531 -21.70531 -19.91911
    1 O1      .S       -0.05704  -0.05704  -0.00460  -0.00460   0.00857
    2 O1      .S        0.27085   0.27085   0.02125   0.02125  -0.01614
    3 O1      .X       -0.00000   0.00000  -0.00000  -0.00000  -0.00000
    4 O1      .Y        0.37200  -0.37200   0.02413  -0.02413  -0.00000
    5 O1      .Z       -0.22475  -0.22475  -0.02958  -0.02958   0.03189
    6 O1      .S        0.24020   0.24020  -0.02157  -0.02157  -0.07864
    7 O1      .X       -0.00000  -0.00000  -0.00000  -0.00000  -0.00000
    8 O1      .Y        0.17785  -0.17785   0.01005  -0.01005   0.00000
    9 O1      .Z       -0.13211  -0.13211  -0.01437  -0.01437   0.03527
   10 O1      .XX      -0.00869  -0.00869   0.00579   0.00579   0.00095
   11 O1      .YY       0.00037   0.00037   0.00533   0.00533   0.00321
   12 O1      .ZZ       0.01007   0.01007  -0.00386  -0.00386   0.00192
   13 O1      .XY      -0.00000  -0.00000  -0.00000  -0.00000   0.00000
   14 O1      .XZ      -0.00000   0.00000   0.00000   0.00000   0.00000
   15 O1      .YZ      -0.01857   0.01857   0.00884  -0.00884   0.00000
   16 C2      .S       -0.02911   0.01295   0.05741  -0.00930   0.01115
   17 C2      .S        0.16971  -0.03343  -0.27159   0.02042  -0.02109
   18 C2      .X       -0.00000  -0.00000   0.00000   0.00000  -0.00000
   19 C2      .Y       -0.24548   0.03430   0.06711  -0.02466  -0.01502
   20 C2      .Z        0.20228  -0.03441   0.34932  -0.00981   0.04143
   21 C2      .S        0.04277  -0.03234  -0.19543   0.08187  -0.01499
   22 C2      .X       -0.00000   0.00000  -0.00000   0.00000  -0.00000
   23 C2      .Y       -0.01827   0.02394  -0.00854  -0.03096  -0.02954
   24 C2      .Z        0.03701  -0.03809   0.08810  -0.03813   0.02348
   25 C2      .XX      -0.01704   0.00089   0.01229   0.00035  -0.00100
   26 C2      .YY       0.01411   0.01605   0.01531  -0.00234   0.00598
   27 C2      .ZZ      -0.00109  -0.00991  -0.00472  -0.00089   0.00299
   28 C2      .XY      -0.00000  -0.00000   0.00000   0.00000   0.00000
   29 C2      .XZ       0.00000   0.00000  -0.00000  -0.00000  -0.00000
   30 C2      .YZ      -0.03061   0.00295  -0.01223  -0.00039   0.01305
   31 C3      .S        0.01295  -0.02911  -0.00930   0.05741   0.01115
   32 C3      .S       -0.03343   0.16971   0.02042  -0.27159  -0.02109
   33 C3      .X        0.00000   0.00000   0.00000  -0.00000  -0.00000
   34 C3      .Y       -0.03430   0.24548   0.02466  -0.06711   0.01502
   35 C3      .Z       -0.03441   0.20228  -0.00981   0.34932   0.04143
   36 C3      .S       -0.03234   0.04277   0.08187  -0.19543  -0.01499
   37 C3      .X        0.00000  -0.00000  -0.00000  -0.00000  -0.00000
   38 C3      .Y       -0.02394   0.01827   0.03096   0.00854   0.02954
   39 C3      .Z       -0.03809   0.03701  -0.03813   0.08810   0.02348
   40 C3      .XX       0.00089  -0.01704   0.00035   0.01229  -0.00100
   41 C3      .YY       0.01605   0.01411  -0.00234   0.01531   0.00598
   42 C3      .ZZ      -0.00991  -0.00109  -0.00089  -0.00472   0.00299
   43 C3      .XY      -0.00000   0.00000  -0.00000   0.00000  -0.00000
   44 C3      .XZ       0.00000   0.00000   0.00000  -0.00000  -0.00000
   45 C3      .YZ      -0.00295   0.03061   0.00039   0.01223  -0.01305
   46 C4      .S        0.00944   0.00755   0.04441  -0.01110  -0.04181
   47 C4      .S       -0.02415  -0.01630  -0.23459   0.02844   0.22718
   48 C4      .X       -0.00000  -0.00000   0.00000   0.00000   0.00000
   49 C4      .Y       -0.01060   0.01427  -0.13850  -0.03122  -0.35870
   50 C4      .Z       -0.02888  -0.01848  -0.32868  -0.00435  -0.05471
   51 C4      .S       -0.00160  -0.07059  -0.15106  -0.01482   0.16202
   52 C4      .X        0.00000  -0.00000   0.00000  -0.00000   0.00000
   53 C4      .Y       -0.03263   0.01172  -0.05753  -0.01939  -0.10675
   54 C4      .Z        0.00165  -0.02265  -0.07187  -0.05422  -0.04606
   55 C4      .XX      -0.00024   0.00057   0.01297   0.00186  -0.01168
   56 C4      .YY      -0.00351   0.00063   0.01441  -0.00817   0.01298
   57 C4      .ZZ       0.00753   0.00014  -0.01186  -0.00007  -0.01357
   58 C4      .XY      -0.00000  -0.00000  -0.00000  -0.00000  -0.00000
   59 C4      .XZ      -0.00000  -0.00000   0.00000   0.00000  -0.00000
   60 C4      .YZ      -0.00380   0.00066  -0.00701   0.00993  -0.00267
   61 C5      .S        0.00755   0.00944  -0.01110   0.04441  -0.04181
   62 C5      .S       -0.01630  -0.02415   0.02844  -0.23459   0.22718
   63 C5      .X       -0.00000   0.00000  -0.00000   0.00000   0.00000
   64 C5      .Y       -0.01427   0.01060   0.03122   0.13850   0.35870
   65 C5      .Z       -0.01848  -0.02888  -0.00435  -0.32868  -0.05471
   66 C5      .S       -0.07059  -0.00160  -0.01482  -0.15106   0.16202
   67 C5      .X        0.00000  -0.00000   0.00000   0.00000   0.00000
   68 C5      .Y       -0.01172   0.03263   0.01939   0.05753   0.10675
   69 C5      .Z       -0.02265   0.00165  -0.05422  -0.07187  -0.04606
   70 C5      .XX       0.00057  -0.00024   0.00186   0.01297  -0.01168
   71 C5      .YY       0.00063  -0.00351  -0.00817   0.01441   0.01298
   72 C5      .ZZ       0.00014   0.00753  -0.00007  -0.01186  -0.01357
   73 C5      .XY      -0.00000   0.00000  -0.00000   0.00000   0.00000
   74 C5      .XZ       0.00000   0.00000  -0.00000   0.00000  -0.00000
   75 C5      .YZ      -0.00066   0.00380  -0.00993   0.00701   0.00267
   76 H6      .S       -0.02136   0.01979   0.02454  -0.00499   0.02069
   77 H6      .S       -0.05320   0.03862   0.07330   0.00174   0.04853
   78 H7      .S        0.01979  -0.02136  -0.00499   0.02454   0.02069
   79 H7      .S        0.03862  -0.05320   0.00174   0.07330   0.04853
   80 H8      .S        0.01636   0.00542   0.01941  -0.01985  -0.02063
   81 H8      .S        0.03722   0.00423   0.06476  -0.05041  -0.06442
   82 H9      .S        0.00542   0.01636  -0.01985   0.01941  -0.02063
   83 H9      .S        0.00423   0.03722  -0.05041   0.06476  -0.06442
                          11        12        13        14        15
                           O         O         O         O         O    
     Eigenvalues --   -17.57935 -17.19546 -17.19546 -16.63222 -16.63222
    1 O1      .S       -0.08644   0.01199   0.01199   0.00559   0.00559
    2 O1      .S        0.32261  -0.02633  -0.02633  -0.01439  -0.01439
    3 O1      .X        0.00000   0.00000  -0.00000  -0.00000   0.00000
    4 O1      .Y       -0.00000   0.03091  -0.03091  -0.01610   0.01610
    5 O1      .Z        0.51118   0.01859   0.01859   0.02068   0.02068
    6 O1      .S        0.43979  -0.07460  -0.07460  -0.03586  -0.03586
    7 O1      .X        0.00000   0.00000  -0.00000  -0.00000   0.00000
    8 O1      .Y        0.00000   0.02247  -0.02247  -0.01297   0.01297
    9 O1      .Z        0.32742   0.00657   0.00657   0.01974   0.01974
   10 O1      .XX       0.00052   0.00111   0.00111  -0.00096  -0.00096
   11 O1      .YY       0.00545   0.01367   0.01367  -0.00036  -0.00036
   12 O1      .ZZ      -0.03348  -0.00450  -0.00450   0.00249   0.00249
   13 O1      .XY      -0.00000   0.00000   0.00000   0.00000   0.00000
   14 O1      .XZ      -0.00000  -0.00000   0.00000   0.00000  -0.00000
   15 O1      .YZ       0.00000  -0.00087   0.00087  -0.00202   0.00202
   16 C2      .S        0.01645  -0.00609  -0.05627  -0.01305   0.00551
   17 C2      .S       -0.06010   0.01603   0.23526   0.04128  -0.01113
   18 C2      .X        0.00000   0.00000   0.00000  -0.00000   0.00000
   19 C2      .Y        0.07386  -0.01865   0.33702  -0.02710  -0.00215
   20 C2      .Z       -0.05069   0.01639   0.18611  -0.03463   0.01575
   21 C2      .S       -0.06716   0.03691   0.21689   0.05882  -0.04128
   22 C2      .X       -0.00000  -0.00000   0.00000   0.00000  -0.00000
   23 C2      .Y        0.01889  -0.01160   0.10848  -0.00933  -0.00543
   24 C2      .Z        0.02023   0.01704   0.04979  -0.01420   0.02591
   25 C2      .XX       0.00328   0.00045  -0.01147  -0.00079  -0.00062
   26 C2      .YY      -0.01528  -0.00450   0.01077   0.00318   0.00256
   27 C2      .ZZ       0.01483   0.00130  -0.00685  -0.00777   0.00118
   28 C2      .XY      -0.00000  -0.00000  -0.00000   0.00000  -0.00000
   29 C2      .XZ       0.00000   0.00000  -0.00000  -0.00000  -0.00000
   30 C2      .YZ      -0.00507  -0.00075   0.02117   0.01041   0.00376
   31 C3      .S        0.01645  -0.05627  -0.00609   0.00551  -0.01305
   32 C3      .S       -0.06010   0.23526   0.01603  -0.01113   0.04128
   33 C3      .X        0.00000   0.00000   0.00000   0.00000  -0.00000
   34 C3      .Y       -0.07386  -0.33702   0.01865   0.00215   0.02710
   35 C3      .Z       -0.05069   0.18611   0.01639   0.01575  -0.03463
   36 C3      .S       -0.06716   0.21689   0.03691  -0.04128   0.05882
   37 C3      .X        0.00000   0.00000  -0.00000   0.00000  -0.00000
   38 C3      .Y       -0.01889  -0.10848   0.01160   0.00543   0.00933
   39 C3      .Z        0.02023   0.04979   0.01704   0.02591  -0.01420
   40 C3      .XX       0.00328  -0.01147   0.00045  -0.00062  -0.00079
   41 C3      .YY      -0.01528   0.01077  -0.00450   0.00256   0.00318
   42 C3      .ZZ       0.01483  -0.00685   0.00130   0.00118  -0.00777
   43 C3      .XY       0.00000   0.00000  -0.00000   0.00000  -0.00000
   44 C3      .XZ       0.00000   0.00000  -0.00000  -0.00000  -0.00000
   45 C3      .YZ       0.00507  -0.02117   0.00075  -0.00376  -0.01041
   46 C4      .S       -0.01005  -0.00468   0.01283   0.04786  -0.01040
   47 C4      .S        0.02452   0.00921  -0.03986  -0.21638   0.03117
   48 C4      .X       -0.00000   0.00000  -0.00000  -0.00000   0.00000
   49 C4      .Y        0.00358  -0.01323  -0.00961  -0.22823  -0.04221
   50 C4      .Z        0.02712  -0.00556  -0.04865   0.30876   0.00112
   51 C4      .S        0.09191   0.02850  -0.05977  -0.19891   0.05745
   52 C4      .X       -0.00000   0.00000  -0.00000  -0.00000   0.00000
   53 C4      .Y        0.02501  -0.01246  -0.01879  -0.07972  -0.01730
   54 C4      .Z        0.02760  -0.00878  -0.02127   0.10004   0.00495
   55 C4      .XX       0.00061   0.00062   0.00187   0.01183  -0.00126
   56 C4      .YY       0.00172  -0.00291   0.00555   0.00057  -0.00229
   57 C4      .ZZ      -0.00366  -0.00000  -0.00298  -0.00700  -0.00070
   58 C4      .XY       0.00000  -0.00000   0.00000   0.00000  -0.00000
   59 C4      .XZ      -0.00000  -0.00000  -0.00000  -0.00000   0.00000
   60 C4      .YZ       0.00334   0.00286   0.00761   0.01900  -0.01013
   61 C5      .S       -0.01005   0.01283  -0.00468  -0.01040   0.04786
   62 C5      .S        0.02452  -0.03986   0.00921   0.03117  -0.21638
   63 C5      .X       -0.00000  -0.00000   0.00000  -0.00000  -0.00000
   64 C5      .Y       -0.00358   0.00961   0.01323   0.04221   0.22823
   65 C5      .Z        0.02712  -0.04865  -0.00556   0.00112   0.30876
   66 C5      .S        0.09191  -0.05977   0.02850   0.05745  -0.19891
   67 C5      .X       -0.00000  -0.00000  -0.00000  -0.00000   0.00000
   68 C5      .Y       -0.02501   0.01879   0.01246   0.01730   0.07972
   69 C5      .Z        0.02760  -0.02127  -0.00878   0.00495   0.10004
   70 C5      .XX       0.00061   0.00187   0.00062  -0.00126   0.01183
   71 C5      .YY       0.00172   0.00555  -0.00291  -0.00229   0.00057
   72 C5      .ZZ      -0.00366  -0.00298  -0.00000  -0.00070  -0.00700
   73 C5      .XY      -0.00000  -0.00000  -0.00000   0.00000  -0.00000
   74 C5      .XZ       0.00000   0.00000   0.00000   0.00000   0.00000
   75 C5      .YZ      -0.00334  -0.00761  -0.00286   0.01013  -0.01900
   76 H6      .S       -0.02317  -0.00621   0.31943   0.00868   0.00633
   77 H6      .S       -0.02399  -0.01814   0.22089   0.00768   0.01719
   78 H7      .S       -0.02317   0.31943  -0.00621   0.00633   0.00868
   79 H7      .S       -0.02399   0.22089  -0.01814   0.01719   0.00768
   80 H8      .S       -0.01367  -0.00439  -0.00811  -0.31943   0.01077
   81 H8      .S       -0.03553  -0.01474  -0.00161  -0.23251   0.01198
   82 H9      .S       -0.01367  -0.00811  -0.00439   0.01077  -0.31943
   83 H9      .S       -0.03553  -0.00161  -0.01474   0.01198  -0.23251
                          16        17        18        19        20
                           O         O         O         V         V    
     Eigenvalues --   -11.89908  -9.44110  -9.44110   3.84083   3.84083
    1 O1      .S        0.00000  -0.00000  -0.00000  -0.00000  -0.00000
    2 O1      .S       -0.00000   0.00000   0.00000  -0.00000  -0.00000
    3 O1      .X        0.60648   0.02341   0.02341  -0.26637  -0.26637
    4 O1      .Y        0.00000  -0.00000   0.00000  -0.00000   0.00000
    5 O1      .Z       -0.00000  -0.00000  -0.00000   0.00000   0.00000
    6 O1      .S       -0.00000   0.00000   0.00000   0.00000   0.00000
    7 O1      .X        0.41415  -0.01184  -0.01184  -0.19053  -0.19053
    8 O1      .Y        0.00000   0.00000   0.00000   0.00000   0.00000
    9 O1      .Z       -0.00000  -0.00000  -0.00000  -0.00000  -0.00000
   10 O1      .XX       0.00000   0.00000  -0.00000  -0.00000  -0.00000
   11 O1      .YY       0.00000   0.00000   0.00000  -0.00000  -0.00000
   12 O1      .ZZ       0.00000   0.00000   0.00000  -0.00000  -0.00000
   13 O1      .XY       0.00000   0.01465  -0.01465   0.00042  -0.00042
   14 O1      .XZ      -0.02798  -0.00773  -0.00773   0.01107   0.01107
   15 O1      .YZ      -0.00000   0.00000   0.00000  -0.00000  -0.00000
   16 C2      .S        0.00000   0.00000   0.00000  -0.00000   0.00000
   17 C2      .S       -0.00000  -0.00000  -0.00000   0.00000   0.00000
   18 C2      .X        0.10511   0.41215  -0.11645   0.57146   0.08322
   19 C2      .Y        0.00000  -0.00000   0.00000   0.00000  -0.00000
   20 C2      .Z        0.00000   0.00000  -0.00000  -0.00000  -0.00000
   21 C2      .S       -0.00000  -0.00000  -0.00000  -0.00000  -0.00000
   22 C2      .X        0.05712   0.27205  -0.11847   0.39369   0.06379
   23 C2      .Y        0.00000   0.00000  -0.00000   0.00000   0.00000
   24 C2      .Z        0.00000   0.00000  -0.00000   0.00000   0.00000
   25 C2      .XX      -0.00000  -0.00000  -0.00000   0.00000   0.00000
   26 C2      .YY       0.00000  -0.00000  -0.00000  -0.00000  -0.00000
   27 C2      .ZZ      -0.00000  -0.00000   0.00000  -0.00000  -0.00000
   28 C2      .XY      -0.01792  -0.00701  -0.00429  -0.01274  -0.00303
   29 C2      .XZ       0.01999  -0.01523  -0.00427  -0.01938  -0.00168
   30 C2      .YZ       0.00000  -0.00000   0.00000   0.00000   0.00000
   31 C3      .S       -0.00000   0.00000   0.00000   0.00000  -0.00000
   32 C3      .S       -0.00000   0.00000   0.00000   0.00000  -0.00000
   33 C3      .X        0.10511  -0.11645   0.41215   0.08322   0.57146
   34 C3      .Y        0.00000  -0.00000   0.00000  -0.00000  -0.00000
   35 C3      .Z        0.00000  -0.00000   0.00000  -0.00000   0.00000
   36 C3      .S        0.00000   0.00000  -0.00000   0.00000   0.00000
   37 C3      .X        0.05712  -0.11847   0.27205   0.06379   0.39369
   38 C3      .Y       -0.00000   0.00000  -0.00000   0.00000   0.00000
   39 C3      .Z        0.00000  -0.00000   0.00000   0.00000  -0.00000
   40 C3      .XX       0.00000   0.00000  -0.00000   0.00000  -0.00000
   41 C3      .YY      -0.00000   0.00000  -0.00000  -0.00000  -0.00000
   42 C3      .ZZ       0.00000   0.00000  -0.00000  -0.00000   0.00000
   43 C3      .XY       0.01792   0.00429   0.00701   0.00303   0.01274
   44 C3      .XZ       0.01999  -0.00427  -0.01523  -0.00168  -0.01938
   45 C3      .YZ      -0.00000  -0.00000   0.00000   0.00000   0.00000
   46 C4      .S       -0.00000   0.00000  -0.00000  -0.00000  -0.00000
   47 C4      .S        0.00000  -0.00000  -0.00000  -0.00000  -0.00000
   48 C4      .X       -0.12427   0.39661   0.07527  -0.55851   0.18767
   49 C4      .Y       -0.00000   0.00000  -0.00000   0.00000   0.00000
   50 C4      .Z       -0.00000   0.00000   0.00000  -0.00000   0.00000
   51 C4      .S        0.00000   0.00000  -0.00000   0.00000   0.00000
   52 C4      .X       -0.10823   0.27389   0.03016  -0.40182   0.13204
   53 C4      .Y       -0.00000  -0.00000   0.00000  -0.00000  -0.00000
   54 C4      .Z        0.00000   0.00000  -0.00000   0.00000   0.00000
   55 C4      .XX      -0.00000   0.00000  -0.00000  -0.00000  -0.00000
   56 C4      .YY       0.00000   0.00000  -0.00000  -0.00000  -0.00000
   57 C4      .ZZ      -0.00000   0.00000  -0.00000   0.00000   0.00000
   58 C4      .XY       0.00425   0.00188  -0.01704  -0.00087  -0.00060
   59 C4      .XZ       0.00271   0.01793  -0.00282  -0.02339   0.00574
   60 C4      .YZ      -0.00000   0.00000  -0.00000   0.00000   0.00000
   61 C5      .S       -0.00000   0.00000  -0.00000   0.00000   0.00000
   62 C5      .S        0.00000   0.00000   0.00000  -0.00000   0.00000
   63 C5      .X       -0.12427   0.07527   0.39661   0.18767  -0.55851
   64 C5      .Y        0.00000  -0.00000   0.00000  -0.00000   0.00000
   65 C5      .Z       -0.00000   0.00000   0.00000   0.00000   0.00000
   66 C5      .S        0.00000  -0.00000   0.00000  -0.00000  -0.00000
   67 C5      .X       -0.10823   0.03016   0.27389   0.13204  -0.40182
   68 C5      .Y        0.00000  -0.00000   0.00000  -0.00000  -0.00000
   69 C5      .Z       -0.00000  -0.00000   0.00000  -0.00000  -0.00000
   70 C5      .XX      -0.00000   0.00000   0.00000  -0.00000   0.00000
   71 C5      .YY       0.00000  -0.00000   0.00000  -0.00000   0.00000
   72 C5      .ZZ      -0.00000   0.00000   0.00000   0.00000  -0.00000
   73 C5      .XY      -0.00425   0.01704  -0.00188   0.00060   0.00087
   74 C5      .XZ       0.00271  -0.00282   0.01793   0.00574  -0.02339
   75 C5      .YZ       0.00000  -0.00000  -0.00000   0.00000   0.00000
   76 H6      .S        0.00000  -0.00000   0.00000  -0.00000  -0.00000
   77 H6      .S        0.00000   0.00000   0.00000  -0.00000  -0.00000
   78 H7      .S       -0.00000   0.00000  -0.00000   0.00000   0.00000
   79 H7      .S       -0.00000   0.00000  -0.00000  -0.00000   0.00000
   80 H8      .S       -0.00000  -0.00000   0.00000   0.00000   0.00000
   81 H8      .S       -0.00000   0.00000   0.00000   0.00000   0.00000
   82 H9      .S        0.00000   0.00000   0.00000  -0.00000   0.00000
   83 H9      .S       -0.00000  -0.00000   0.00000  -0.00000  -0.00000
                          21        22        23        24        25
                           V         V         V         V         V    
     Eigenvalues --    12.38824  12.38824  15.29621  15.29621  15.38772
    1 O1      .S        0.08580   0.08580  -0.01091  -0.01091  -0.00239
    2 O1      .S       -0.38908  -0.38908  -0.00899  -0.00899  -0.00646
    3 O1      .X       -0.00000   0.00000   0.00000  -0.00000  -0.00000
    4 O1      .Y       -0.51027   0.51027  -0.07274   0.07274  -0.00619
    5 O1      .Z        0.29339   0.29339   0.06154   0.06154  -0.03634
    6 O1      .S       -0.33722  -0.33722   0.09340   0.09340   0.04105
    7 O1      .X        0.00000   0.00000   0.00000   0.00000  -0.00000
    8 O1      .Y       -0.28384   0.28384  -0.03929   0.03929  -0.03009
    9 O1      .Z        0.28165   0.28165  -0.00276  -0.00276  -0.03354
   10 O1      .XX      -0.00935  -0.00935  -0.01052  -0.01052  -0.00553
   11 O1      .YY      -0.03219  -0.03219  -0.01439  -0.01439  -0.00604
   12 O1      .ZZ      -0.03276  -0.03276  -0.01221  -0.01221  -0.00356
   13 O1      .XY      -0.00000   0.00000   0.00000   0.00000  -0.00000
   14 O1      .XZ      -0.00000   0.00000  -0.00000  -0.00000  -0.00000
   15 O1      .YZ       0.03004  -0.03004  -0.00169   0.00169   0.00077
   16 C2      .S       -0.08879  -0.00137   0.00322   0.09205  -0.00636
   17 C2      .S        0.43027  -0.05616  -0.04571  -0.35791   0.00185
   18 C2      .X        0.00000   0.00000   0.00000   0.00000   0.00000
   19 C2      .Y       -0.64992  -0.01089   0.04731  -0.66149  -0.03748
   20 C2      .Z        0.50471  -0.06321  -0.00060  -0.34019  -0.02627
   21 C2      .S        0.27877   0.12240   0.09060  -0.61807   0.16369
   22 C2      .X       -0.00000  -0.00000  -0.00000  -0.00000   0.00000
   23 C2      .Y       -0.18914  -0.14376  -0.07970  -0.11687  -0.07557
   24 C2      .Z        0.15880  -0.03023  -0.04910  -0.02503  -0.04301
   25 C2      .XX       0.00243   0.00778   0.00149  -0.03117   0.00687
   26 C2      .YY       0.06374   0.00266   0.00023  -0.04769   0.00755
   27 C2      .ZZ       0.03325   0.00367   0.00167  -0.03659   0.00760
   28 C2      .XY       0.00000  -0.00000   0.00000   0.00000  -0.00000
   29 C2      .XZ      -0.00000  -0.00000  -0.00000   0.00000  -0.00000
   30 C2      .YZ      -0.05403   0.00334   0.00101  -0.01778   0.00045
   31 C3      .S       -0.00137  -0.08879   0.09205   0.00322   0.01126
   32 C3      .S       -0.05616   0.43027  -0.35791  -0.04571   0.04138
   33 C3      .X        0.00000  -0.00000  -0.00000  -0.00000   0.00000
   34 C3      .Y        0.01089   0.64992   0.66149  -0.04731   0.08098
   35 C3      .Z       -0.06321   0.50471  -0.34019  -0.00060   0.03090
   36 C3      .S        0.12240   0.27877  -0.61807   0.09060  -0.21332
   37 C3      .X       -0.00000  -0.00000  -0.00000  -0.00000  -0.00000
   38 C3      .Y        0.14376   0.18914   0.11687   0.07970  -0.13205
   39 C3      .Z       -0.03023   0.15880  -0.02503  -0.04910   0.11946
   40 C3      .XX       0.00778   0.00243  -0.03117   0.00149  -0.00879
   41 C3      .YY       0.00266   0.06374  -0.04769   0.00023  -0.00940
   42 C3      .ZZ       0.00367   0.03325  -0.03659   0.00167  -0.00681
   43 C3      .XY      -0.00000  -0.00000  -0.00000  -0.00000  -0.00000
   44 C3      .XZ       0.00000  -0.00000  -0.00000  -0.00000   0.00000
   45 C3      .YZ      -0.00334   0.05403   0.01778  -0.00101   0.00204
   46 C4      .S        0.00635   0.00589   0.00670  -0.01372   0.01048
   47 C4      .S       -0.03598  -0.00382  -0.00844  -0.06800   0.05099
   48 C4      .X        0.00000  -0.00000  -0.00000  -0.00000   0.00000
   49 C4      .Y        0.13311   0.03259   0.03744   0.09595   0.00581
   50 C4      .Z       -0.06866  -0.02311  -0.03311  -0.02344   0.08670
   51 C4      .S        0.13772  -0.27208  -0.20926   0.29007  -0.25582
   52 C4      .X       -0.00000   0.00000   0.00000   0.00000  -0.00000
   53 C4      .Y       -0.20778   0.15746   0.07988  -0.09198   0.14738
   54 C4      .Z        0.03719  -0.06079  -0.06809   0.18894  -0.14217
   55 C4      .XX       0.00409  -0.00935  -0.00475   0.00317  -0.00373
   56 C4      .YY      -0.00042  -0.00884  -0.00615   0.00185  -0.00336
   57 C4      .ZZ       0.01211  -0.00853  -0.00534   0.00554  -0.00384
   58 C4      .XY       0.00000  -0.00000   0.00000   0.00000   0.00000
   59 C4      .XZ       0.00000  -0.00000   0.00000   0.00000  -0.00000
   60 C4      .YZ      -0.00230   0.00087   0.00070  -0.00226   0.00202
   61 C5      .S        0.00589   0.00635  -0.01372   0.00670  -0.09471
   62 C5      .S       -0.00382  -0.03598  -0.06800  -0.00844   0.34323
   63 C5      .X        0.00000   0.00000   0.00000   0.00000  -0.00000
   64 C5      .Y       -0.03259  -0.13311  -0.09595  -0.03744  -0.45332
   65 C5      .Z       -0.02311  -0.06866  -0.02344  -0.03311  -0.58782
   66 C5      .S       -0.27208   0.13772   0.29007  -0.20926   0.75814
   67 C5      .X        0.00000  -0.00000   0.00000  -0.00000   0.00000
   68 C5      .Y       -0.15746   0.20778   0.09198  -0.07988  -0.06552
   69 C5      .Z       -0.06079   0.03719   0.18894  -0.06809  -0.07332
   70 C5      .XX      -0.00935   0.00409   0.00317  -0.00475   0.02442
   71 C5      .YY      -0.00884  -0.00042   0.00185  -0.00615   0.03520
   72 C5      .ZZ      -0.00853   0.01211   0.00554  -0.00534   0.04031
   73 C5      .XY       0.00000  -0.00000   0.00000  -0.00000   0.00000
   74 C5      .XZ       0.00000   0.00000  -0.00000   0.00000   0.00000
   75 C5      .YZ      -0.00087   0.00230   0.00226  -0.00070   0.01319
   76 H6      .S       -0.00386  -0.01744   0.00409   0.88504   0.00185
   77 H6      .S       -0.05085   0.01274   0.04117   0.43965   0.00872
   78 H7      .S       -0.01744  -0.00386   0.88504   0.00409  -0.00242
   79 H7      .S        0.01274  -0.05085   0.43965   0.04117  -0.06477
   80 H8      .S        0.02967  -0.00216   0.00147   0.00417  -0.00752
   81 H8      .S        0.09486  -0.02218  -0.00603   0.07598  -0.07588
   82 H9      .S       -0.00216   0.02967   0.00417   0.00147  -0.87050
   83 H9      .S       -0.02218   0.09486   0.07598  -0.00603  -0.47669
                          26        27        28        29        30
                           V         V         V         V         V    
     Eigenvalues --    15.38772  16.48083  19.20016  19.20016  15.88061
    1 O1      .S       -0.00239   0.00000   0.00162   0.00162  -0.01656
    2 O1      .S       -0.00646  -0.00000  -0.00855  -0.00855  -0.01061
    3 O1      .X       -0.00000  -0.00000  -0.00000   0.00000   0.00000
    4 O1      .Y        0.00619   0.00460   0.03803  -0.03803   0.01990
    5 O1      .Z       -0.03634   0.00000  -0.10221  -0.10221  -0.00125
    6 O1      .S        0.04105  -0.00000  -0.04951  -0.04951   0.32116
    7 O1      .X       -0.00000  -0.00000   0.00000  -0.00000   0.00000
    8 O1      .Y        0.03009  -0.07402  -0.02638   0.02638   0.00652
    9 O1      .Z       -0.03354   0.00000  -0.02202  -0.02202  -0.16284
   10 O1      .XX      -0.00553   0.00000   0.00416   0.00416  -0.03460
   11 O1      .YY      -0.00604   0.00000   0.00065   0.00065  -0.03457
   12 O1      .ZZ      -0.00356   0.00000   0.00358   0.00358  -0.03448
   13 O1      .XY      -0.00000  -0.00000  -0.00000   0.00000  -0.00000
   14 O1      .XZ       0.00000  -0.00000   0.00000   0.00000  -0.00000
   15 O1      .YZ      -0.00077  -0.00099  -0.00324   0.00324   0.00011
   16 C2      .S        0.01126   0.00534  -0.00036   0.09504   0.00271
   17 C2      .S        0.04138  -0.01236   0.05657  -0.65922  -0.14793
   18 C2      .X       -0.00000  -0.00000   0.00000  -0.00000  -0.00000
   19 C2      .Y       -0.08098   0.12137  -0.02835   0.18947  -0.18961
   20 C2      .Z        0.03090  -0.01446   0.02282   0.78393  -0.07082
   21 C2      .S       -0.21332   0.10474  -0.20946  -0.06767   0.38718
   22 C2      .X       -0.00000   0.00000   0.00000   0.00000  -0.00000
   23 C2      .Y        0.13205  -0.15404   0.08214  -0.04136   2.02875
   24 C2      .Z        0.11946   0.03063   0.11033   0.15690   1.24890
   25 C2      .XX      -0.00879   0.00634  -0.00972  -0.00630   0.00908
   26 C2      .YY      -0.00940   0.00579  -0.00913  -0.00956   0.00920
   27 C2      .ZZ      -0.00681   0.00902  -0.00859  -0.03490   0.00893
   28 C2      .XY      -0.00000   0.00000  -0.00000   0.00000  -0.00000
   29 C2      .XZ       0.00000  -0.00000  -0.00000  -0.00000  -0.00000
   30 C2      .YZ      -0.00204   0.00377  -0.00033  -0.01602   0.00025
   31 C3      .S       -0.00636  -0.00534   0.09504  -0.00036  -0.01039
   32 C3      .S        0.00185   0.01236  -0.65922   0.05657  -0.11897
   33 C3      .X       -0.00000   0.00000  -0.00000   0.00000  -0.00000
   34 C3      .Y        0.03748   0.12137  -0.18947   0.02835  -0.01579
   35 C3      .Z       -0.02627   0.01446   0.78393   0.02282  -0.02093
   36 C3      .S        0.16369  -0.10474  -0.06767  -0.20946   0.42351
   37 C3      .X        0.00000   0.00000  -0.00000   0.00000  -0.00000
   38 C3      .Y        0.07557  -0.15404   0.04136  -0.08214   0.42954
   39 C3      .Z       -0.04301  -0.03063   0.15690   0.11033  -0.21063
   40 C3      .XX       0.00687  -0.00634  -0.00630  -0.00972   0.01389
   41 C3      .YY       0.00755  -0.00579  -0.00956  -0.00913   0.01411
   42 C3      .ZZ       0.00760  -0.00902  -0.03490  -0.00859   0.01391
   43 C3      .XY       0.00000  -0.00000  -0.00000   0.00000   0.00000
   44 C3      .XZ       0.00000  -0.00000   0.00000   0.00000  -0.00000
   45 C3      .YZ      -0.00045   0.00377   0.01602   0.00033   0.00009
   46 C4      .S       -0.09471  -0.09264   0.00408  -0.09067  -0.00541
   47 C4      .S        0.34323   0.56234  -0.02153   0.64056  -0.11082
   48 C4      .X        0.00000   0.00000  -0.00000   0.00000   0.00000
   49 C4      .Y        0.45332  -0.76703   0.00495   0.25873   0.01070
   50 C4      .Z       -0.58782  -0.05157  -0.11512   0.77728   0.04215
   51 C4      .S        0.75814   0.02981   0.24052  -0.00591   1.39983
   52 C4      .X        0.00000  -0.00000  -0.00000  -0.00000   0.00000
   53 C4      .Y        0.06552  -0.13628  -0.03133   0.17145  -0.49217
   54 C4      .Z       -0.07332  -0.08327   0.20657   0.09805   0.87130
   55 C4      .XX       0.02442   0.00962   0.00758   0.01277   0.03299
   56 C4      .YY       0.03520   0.04483   0.01170   0.01644   0.03316
   57 C4      .ZZ       0.04031   0.01406   0.00651   0.04925   0.03293
   58 C4      .XY       0.00000  -0.00000   0.00000  -0.00000   0.00000
   59 C4      .XZ       0.00000  -0.00000  -0.00000  -0.00000  -0.00000
   60 C4      .YZ      -0.01319  -0.00409  -0.00114   0.00650   0.00007
   61 C5      .S        0.01048   0.09264  -0.09067   0.00408  -0.00757
   62 C5      .S        0.05099  -0.56234   0.64056  -0.02153  -0.00012
   63 C5      .X        0.00000  -0.00000  -0.00000  -0.00000  -0.00000
   64 C5      .Y       -0.00581  -0.76703  -0.25873  -0.00495  -0.01783
   65 C5      .Z        0.08670   0.05157   0.77728  -0.11512  -0.01400
   66 C5      .S       -0.25582  -0.02981  -0.00591   0.24052  -0.64852
   67 C5      .X       -0.00000  -0.00000   0.00000   0.00000   0.00000
   68 C5      .Y       -0.14738  -0.13628  -0.17145   0.03133  -0.16522
   69 C5      .Z       -0.14217   0.08327   0.09805   0.20657  -0.17577
   70 C5      .XX      -0.00373  -0.00962   0.01277   0.00758  -0.02045
   71 C5      .YY      -0.00336  -0.04483   0.01644   0.01170  -0.02028
   72 C5      .ZZ      -0.00384  -0.01406   0.04925   0.00651  -0.02052
   73 C5      .XY      -0.00000   0.00000   0.00000  -0.00000   0.00000
   74 C5      .XZ      -0.00000  -0.00000   0.00000  -0.00000   0.00000
   75 C5      .YZ      -0.00202  -0.00409  -0.00650   0.00114   0.00006
   76 H6      .S       -0.00242   0.01575   0.00465  -0.05810   0.83721
   77 H6      .S       -0.06477   0.06540  -0.03380   0.06865  -3.09849
   78 H7      .S        0.00185  -0.01575  -0.05810   0.00465   0.03946
   79 H7      .S        0.00872  -0.06540   0.06865  -0.03380   0.18003
   80 H8      .S       -0.87050   0.04093   0.02219   0.04542   0.04911
   81 H8      .S       -0.47669  -0.05409   0.07774  -0.06959   0.31405
   82 H9      .S       -0.00752  -0.04093   0.04542   0.02219   0.00731
   83 H9      .S       -0.07588   0.05409  -0.06959   0.07774  -0.01172
                          31        32        33        34        35
                           V         V         V         V         V    
     Eigenvalues --    15.88061  16.32420  16.32420  22.06729  22.06729
    1 O1      .S       -0.01656   0.00625   0.00625   0.02023   0.02023
    2 O1      .S       -0.01061  -0.01136  -0.01136  -0.09386  -0.09386
    3 O1      .X       -0.00000  -0.00000   0.00000  -0.00000   0.00000
    4 O1      .Y       -0.01990  -0.00271   0.00271  -0.04323   0.04323
    5 O1      .Z       -0.00125   0.00120   0.00120   0.02181   0.02181
    6 O1      .S        0.32116  -0.17487  -0.17487  -0.33592  -0.33592
    7 O1      .X       -0.00000  -0.00000   0.00000  -0.00000  -0.00000
    8 O1      .Y       -0.00652  -0.08316   0.08316  -0.37248   0.37248
    9 O1      .Z       -0.16284   0.03062   0.03062  -0.01372  -0.01372
   10 O1      .XX      -0.03460   0.01616   0.01616   0.02286   0.02286
   11 O1      .YY      -0.03457   0.01615   0.01615   0.01790   0.01790
   12 O1      .ZZ      -0.03448   0.01651   0.01651   0.02520   0.02520
   13 O1      .XY       0.00000   0.00000   0.00000   0.00000  -0.00000
   14 O1      .XZ       0.00000   0.00000  -0.00000  -0.00000   0.00000
   15 O1      .YZ      -0.00011  -0.00003   0.00003   0.00056  -0.00056
   16 C2      .S       -0.01039   0.00538  -0.01047   0.00203  -0.00943
   17 C2      .S       -0.11897  -0.09681   0.02461   0.07083   0.01937
   18 C2      .X       -0.00000   0.00000   0.00000  -0.00000  -0.00000
   19 C2      .Y        0.01579  -0.03102  -0.00570  -0.12247  -0.01410
   20 C2      .Z       -0.02093  -0.04635   0.03260  -0.00963  -0.03561
   21 C2      .S        0.42351   1.15589  -0.48127  -0.49144  -0.12320
   22 C2      .X        0.00000  -0.00000  -0.00000   0.00000   0.00000
   23 C2      .Y       -0.42954  -0.80471   0.14642  -1.44373   0.42563
   24 C2      .Z       -0.21063  -0.49731   0.07562   0.65859  -0.26041
   25 C2      .XX       0.01389   0.05815  -0.02582  -0.01380  -0.00748
   26 C2      .YY       0.01411   0.05840  -0.02574  -0.02473  -0.00847
   27 C2      .ZZ       0.01391   0.05815  -0.02586   0.00112  -0.00970
   28 C2      .XY       0.00000   0.00000  -0.00000   0.00000  -0.00000
   29 C2      .XZ      -0.00000   0.00000  -0.00000  -0.00000  -0.00000
   30 C2      .YZ      -0.00009  -0.00021   0.00014  -0.01477   0.00233
   31 C3      .S        0.00271  -0.01047   0.00538  -0.00943   0.00203
   32 C3      .S       -0.14793   0.02461  -0.09681   0.01937   0.07083
   33 C3      .X       -0.00000  -0.00000   0.00000  -0.00000   0.00000
   34 C3      .Y        0.18961   0.00570   0.03102   0.01410   0.12247
   35 C3      .Z       -0.07082   0.03260  -0.04635  -0.03561  -0.00963
   36 C3      .S        0.38718  -0.48127   1.15589  -0.12320  -0.49144
   37 C3      .X        0.00000   0.00000  -0.00000   0.00000  -0.00000
   38 C3      .Y       -2.02875  -0.14642   0.80471  -0.42563   1.44373
   39 C3      .Z        1.24890   0.07562  -0.49731  -0.26041   0.65859
   40 C3      .XX       0.00908  -0.02582   0.05815  -0.00748  -0.01380
   41 C3      .YY       0.00920  -0.02574   0.05840  -0.00847  -0.02473
   42 C3      .ZZ       0.00893  -0.02586   0.05815  -0.00970   0.00112
   43 C3      .XY       0.00000  -0.00000   0.00000   0.00000   0.00000
   44 C3      .XZ      -0.00000  -0.00000  -0.00000  -0.00000  -0.00000
   45 C3      .YZ      -0.00025  -0.00014   0.00021  -0.00233   0.01477
   46 C4      .S       -0.00757   0.00778  -0.00661  -0.00753   0.00408
   47 C4      .S       -0.00012  -0.08956  -0.10477   0.39942  -0.10825
   48 C4      .X        0.00000  -0.00000   0.00000  -0.00000   0.00000
   49 C4      .Y        0.01783  -0.14395  -0.04897  -0.79015  -0.15827
   50 C4      .Z       -0.01400   0.17107   0.00252  -0.21196  -0.05109
   51 C4      .S       -0.64852  -0.17560   1.26060  -1.27885   2.75177
   52 C4      .X        0.00000   0.00000   0.00000   0.00000  -0.00000
   53 C4      .Y        0.16522   1.66686  -0.70746   4.12325  -1.68216
   54 C4      .Z       -0.17577  -2.19590   0.74818  -0.04361  -0.17498
   55 C4      .XX      -0.02045  -0.01424   0.02938  -0.11880   0.08370
   56 C4      .YY      -0.02028  -0.01426   0.02930  -0.22916   0.11801
   57 C4      .ZZ      -0.02052  -0.01425   0.02948  -0.07843   0.08142
   58 C4      .XY      -0.00000   0.00000   0.00000   0.00000   0.00000
   59 C4      .XZ       0.00000   0.00000  -0.00000   0.00000  -0.00000
   60 C4      .YZ      -0.00006  -0.00010   0.00014  -0.10630   0.01317
   61 C5      .S       -0.00541  -0.00661   0.00778   0.00408  -0.00753
   62 C5      .S       -0.11082  -0.10477  -0.08956  -0.10825   0.39942
   63 C5      .X       -0.00000   0.00000  -0.00000   0.00000  -0.00000
   64 C5      .Y       -0.01070   0.04897   0.14395   0.15827   0.79015
   65 C5      .Z        0.04215   0.00252   0.17107  -0.05109  -0.21196
   66 C5      .S        1.39983   1.26060  -0.17560   2.75177  -1.27885
   67 C5      .X       -0.00000  -0.00000  -0.00000  -0.00000   0.00000
   68 C5      .Y        0.49217   0.70746  -1.66686   1.68216  -4.12325
   69 C5      .Z        0.87130   0.74818  -2.19590  -0.17498  -0.04361
   70 C5      .XX       0.03299   0.02938  -0.01424   0.08370  -0.11880
   71 C5      .YY       0.03316   0.02930  -0.01426   0.11801  -0.22916
   72 C5      .ZZ       0.03293   0.02948  -0.01425   0.08142  -0.07843
   73 C5      .XY       0.00000   0.00000  -0.00000  -0.00000   0.00000
   74 C5      .XZ       0.00000   0.00000  -0.00000  -0.00000   0.00000
   75 C5      .YZ      -0.00007  -0.00014   0.00010  -0.01317   0.10630
   76 H6      .S        0.03946   0.05345   0.01422   0.20466  -0.00870
   77 H6      .S        0.18003   0.31754  -0.00377   0.38742  -0.06420
   78 H7      .S        0.83721   0.01422   0.05345  -0.00870   0.20466
   79 H7      .S       -3.09849  -0.00377   0.31754  -0.06420   0.38742
   80 H8      .S        0.00731   0.83182   0.06063  -0.32962  -0.04505
   81 H8      .S       -0.01172  -3.20773   0.34074  -1.06570   0.15331
   82 H9      .S        0.04911   0.06063   0.83182  -0.04505  -0.32962
   83 H9      .S        0.31405   0.34074  -3.20773   0.15331  -1.06570
                          36        37        38        39        40
                           V         V         V         V         V    
     Eigenvalues --    26.22029  26.22029  31.00644  32.23751  32.53592
    1 O1      .S        0.02118   0.02118  -0.00000   0.04081  -0.00000
    2 O1      .S       -0.28685  -0.28685  -0.00000  -0.41493  -0.00000
    3 O1      .X       -0.00000  -0.00000   0.85132  -0.00000  -0.02794
    4 O1      .Y       -0.09618   0.09618  -0.00000   0.00000  -0.00000
    5 O1      .Z       -0.03444  -0.03444   0.00000  -0.80068  -0.00000
    6 O1      .S       -0.44694  -0.44694   0.00000   0.48386   0.00000
    7 O1      .X       -0.00000   0.00000  -1.22261   0.00000   0.02589
    8 O1      .Y       -0.68238   0.68238   0.00000  -0.00000   0.00000
    9 O1      .Z       -0.23852  -0.23852  -0.00000   1.25505  -0.00000
   10 O1      .XX      -0.00763  -0.00763  -0.00000  -0.02119  -0.00000
   11 O1      .YY      -0.05701  -0.05701  -0.00000  -0.36745  -0.00000
   12 O1      .ZZ       0.06003   0.06003  -0.00000   0.32763  -0.00000
   13 O1      .XY       0.00000  -0.00000  -0.00000   0.00000   0.00057
   14 O1      .XZ      -0.00000   0.00000  -0.37159  -0.00000  -0.00673
   15 O1      .YZ       0.00373  -0.00373  -0.00000  -0.00000  -0.00000
   16 C2      .S        0.01126   0.01135   0.00000   0.02165  -0.00000
   17 C2      .S       -0.66425   0.07769   0.00000   0.13943  -0.00000
   18 C2      .X        0.00000   0.00000   0.00182   0.00000  -0.00205
   19 C2      .Y        0.49233   0.14571  -0.00000  -0.12429   0.00000
   20 C2      .Z       -0.54976  -0.02458  -0.00000   0.08651  -0.00000
   21 C2      .S        1.04900  -0.99002  -0.00000   0.20083  -0.00000
   22 C2      .X        0.00000  -0.00000   0.37275   0.00000  -0.09997
   23 C2      .Y       -2.25114   0.90290   0.00000  -0.02460   0.00000
   24 C2      .Z        1.17975  -0.01370   0.00000  -0.51215   0.00000
   25 C2      .XX       0.20466  -0.05751   0.00000   0.03085  -0.00000
   26 C2      .YY      -0.27060  -0.07091  -0.00000  -0.01624  -0.00000
   27 C2      .ZZ       0.41713  -0.04578  -0.00000   0.07715  -0.00000
   28 C2      .XY       0.00000  -0.00000   0.04204   0.00000   0.00565
   29 C2      .XZ      -0.00000   0.00000  -0.01518  -0.00000  -0.00371
   30 C2      .YZ      -0.21972  -0.00050   0.00000  -0.03066   0.00000
   31 C3      .S        0.01135   0.01126  -0.00000   0.02165  -0.00000
   32 C3      .S        0.07769  -0.66425  -0.00000   0.13943   0.00000
   33 C3      .X        0.00000  -0.00000   0.00182   0.00000  -0.02939
   34 C3      .Y       -0.14571  -0.49233  -0.00000   0.12429  -0.00000
   35 C3      .Z       -0.02458  -0.54976   0.00000   0.08651   0.00000
   36 C3      .S       -0.99002   1.04900  -0.00000   0.20083   0.00000
   37 C3      .X        0.00000  -0.00000   0.37275  -0.00000   0.20066
   38 C3      .Y       -0.90290   2.25114  -0.00000   0.02460   0.00000
   39 C3      .Z       -0.01370   1.17975   0.00000  -0.51215  -0.00000
   40 C3      .XX      -0.05751   0.20466   0.00000   0.03085  -0.00000
   41 C3      .YY      -0.07091  -0.27060  -0.00000  -0.01624  -0.00000
   42 C3      .ZZ      -0.04578   0.41713   0.00000   0.07715  -0.00000
   43 C3      .XY       0.00000   0.00000  -0.04204   0.00000  -0.03354
   44 C3      .XZ      -0.00000  -0.00000  -0.01518  -0.00000   0.11158
   45 C3      .YZ       0.00050   0.21972   0.00000   0.03066   0.00000
   46 C4      .S        0.00653  -0.00019  -0.00000  -0.00483  -0.00000
   47 C4      .S        0.05133  -0.00094  -0.00000  -0.03559  -0.00000
   48 C4      .X       -0.00000   0.00000  -0.01084  -0.00000   0.05131
   49 C4      .Y        0.00828  -0.05838   0.00000  -0.00887   0.00000
   50 C4      .Z       -0.12887   0.01966  -0.00000  -0.04387  -0.00000
   51 C4      .S       -0.60052   1.24533   0.00000  -0.45090   0.00000
   52 C4      .X       -0.00000   0.00000  -0.10828  -0.00000   0.39892
   53 C4      .Y        1.38019  -0.66957  -0.00000  -0.24923  -0.00000
   54 C4      .Z       -0.41930   0.21896   0.00000  -0.00363   0.00000
   55 C4      .XX      -0.03398   0.03225  -0.00000  -0.01723  -0.00000
   56 C4      .YY      -0.04834   0.03424  -0.00000  -0.02287  -0.00000
   57 C4      .ZZ      -0.04467   0.03730  -0.00000  -0.00857  -0.00000
   58 C4      .XY      -0.00000   0.00000   0.00060  -0.00000  -0.03956
   59 C4      .XZ      -0.00000   0.00000   0.00405   0.00000  -0.01286
   60 C4      .YZ      -0.07265   0.01087   0.00000  -0.01221   0.00000
   61 C5      .S       -0.00019   0.00653   0.00000  -0.00483   0.00000
   62 C5      .S       -0.00094   0.05133  -0.00000  -0.03559  -0.00000
   63 C5      .X       -0.00000  -0.00000  -0.01084   0.00000   0.76228
   64 C5      .Y        0.05838  -0.00828  -0.00000   0.00887   0.00000
   65 C5      .Z        0.01966  -0.12887   0.00000  -0.04387   0.00000
   66 C5      .S        1.24533  -0.60052  -0.00000  -0.45090  -0.00000
   67 C5      .X       -0.00000   0.00000  -0.10828  -0.00000  -1.11731
   68 C5      .Y        0.66957  -1.38019  -0.00000   0.24923  -0.00000
   69 C5      .Z        0.21896  -0.41930   0.00000  -0.00363  -0.00000
   70 C5      .XX       0.03225  -0.03398  -0.00000  -0.01723   0.00000
   71 C5      .YY       0.03424  -0.04834  -0.00000  -0.02287   0.00000
   72 C5      .ZZ       0.03730  -0.04467   0.00000  -0.00857   0.00000
   73 C5      .XY      -0.00000   0.00000  -0.00060   0.00000  -0.31934
   74 C5      .XZ       0.00000  -0.00000   0.00405  -0.00000   0.61342
   75 C5      .YZ      -0.01087   0.07265  -0.00000   0.01221   0.00000
   76 H6      .S        0.31606  -0.06186  -0.00000   0.07326  -0.00000
   77 H6      .S        0.42862  -0.21779  -0.00000   0.05339  -0.00000
   78 H7      .S       -0.06186   0.31606  -0.00000   0.07326   0.00000
   79 H7      .S       -0.21779   0.42862  -0.00000   0.05339   0.00000
   80 H8      .S       -0.15545  -0.00244   0.00000   0.05437   0.00000
   81 H8      .S       -0.33584   0.10317   0.00000   0.11813   0.00000
   82 H9      .S       -0.00244  -0.15545  -0.00000   0.05437  -0.00000
   83 H9      .S        0.10317  -0.33584   0.00000   0.11813  -0.00000
                          41        42        43        44        45
                           V         V         V         V         V    
     Eigenvalues --    32.53592  32.98775  32.98775  33.03096  33.03096
    1 O1      .S       -0.00000   0.01233   0.01233   0.00121   0.00121
    2 O1      .S       -0.00000  -0.06122  -0.06122   0.02184   0.02184
    3 O1      .X       -0.02794   0.00000  -0.00000  -0.00000   0.00000
    4 O1      .Y        0.00000   0.03648  -0.03648  -0.01776   0.01776
    5 O1      .Z        0.00000   0.11029   0.11029  -0.02390  -0.02390
    6 O1      .S        0.00000  -0.39522  -0.39522  -0.01287  -0.01287
    7 O1      .X        0.02589   0.00000  -0.00000  -0.00000   0.00000
    8 O1      .Y       -0.00000   0.02965  -0.02965  -0.07393   0.07393
    9 O1      .Z       -0.00000   0.48531   0.48531  -0.11634  -0.11634
   10 O1      .XX      -0.00000   0.01489   0.01489   0.00786   0.00786
   11 O1      .YY      -0.00000  -0.06584  -0.06584  -0.00480  -0.00480
   12 O1      .ZZ      -0.00000   0.05895   0.05895   0.00978   0.00978
   13 O1      .XY      -0.00057  -0.00000  -0.00000   0.00000  -0.00000
   14 O1      .XZ      -0.00673  -0.00000  -0.00000   0.00000   0.00000
   15 O1      .YZ       0.00000  -0.04292   0.04292  -0.00227   0.00227
   16 C2      .S       -0.00000   0.02182  -0.03360   0.00960   0.00927
   17 C2      .S        0.00000   0.30712  -0.76571  -0.07615   0.26087
   18 C2      .X       -0.02939   0.00000   0.00000  -0.00000  -0.00000
   19 C2      .Y        0.00000  -0.02896   0.38157  -0.00391   0.01147
   20 C2      .Z       -0.00000   0.09747   0.54183  -0.04610   0.02804
   21 C2      .S       -0.00000  -1.16228   3.54354   0.52074  -1.96077
   22 C2      .X        0.20066  -0.00000   0.00000   0.00000  -0.00000
   23 C2      .Y        0.00000   1.02094  -3.64962  -0.63331   0.87443
   24 C2      .Z        0.00000   0.47387  -3.78884  -0.07100   1.11937
   25 C2      .XX       0.00000  -0.03688   0.08473   0.03334  -0.10385
   26 C2      .YY      -0.00000  -0.05359  -0.18449   0.04112  -0.11803
   27 C2      .ZZ      -0.00000  -0.03086   0.36765   0.03020  -0.01876
   28 C2      .XY       0.03354   0.00000  -0.00000   0.00000  -0.00000
   29 C2      .XZ       0.11158   0.00000  -0.00000   0.00000  -0.00000
   30 C2      .YZ      -0.00000   0.00167  -0.37655   0.00888  -0.01039
   31 C3      .S        0.00000  -0.03360   0.02182   0.00927   0.00960
   32 C3      .S       -0.00000  -0.76571   0.30712   0.26087  -0.07615
   33 C3      .X       -0.00205  -0.00000   0.00000  -0.00000  -0.00000
   34 C3      .Y        0.00000  -0.38157   0.02896  -0.01147   0.00391
   35 C3      .Z       -0.00000   0.54183   0.09747   0.02804  -0.04610
   36 C3      .S        0.00000   3.54354  -1.16228  -1.96077   0.52074
   37 C3      .X       -0.09997  -0.00000   0.00000   0.00000  -0.00000
   38 C3      .Y       -0.00000   3.64962  -1.02094  -0.87443   0.63331
   39 C3      .Z       -0.00000  -3.78884   0.47387   1.11937  -0.07100
   40 C3      .XX       0.00000   0.08473  -0.03688  -0.10385   0.03334
   41 C3      .YY      -0.00000  -0.18449  -0.05359  -0.11803   0.04112
   42 C3      .ZZ      -0.00000   0.36765  -0.03086  -0.01876   0.03020
   43 C3      .XY      -0.00565  -0.00000  -0.00000   0.00000   0.00000
   44 C3      .XZ      -0.00371  -0.00000  -0.00000   0.00000  -0.00000
   45 C3      .YZ      -0.00000   0.37655  -0.00167   0.01039  -0.00888
   46 C4      .S       -0.00000   0.01439  -0.00115   0.02604  -0.01366
   47 C4      .S       -0.00000  -0.00180   0.24981   0.24968  -2.30432
   48 C4      .X        0.76228  -0.00000  -0.00000   0.00000   0.00000
   49 C4      .Y        0.00000  -0.02479  -0.10129   0.14524  -0.12915
   50 C4      .Z        0.00000  -0.01910  -0.16070   0.00321   0.24732
   51 C4      .S        0.00000   1.45944  -4.64887  -2.55649   6.33787
   52 C4      .X       -1.11731  -0.00000  -0.00000  -0.00000  -0.00000
   53 C4      .Y       -0.00000  -0.41576   0.62226   1.67416  -0.90577
   54 C4      .Z        0.00000   0.64544  -2.51793  -0.44311   0.47916
   55 C4      .XX      -0.00000   0.03419  -0.12278  -0.06869   0.28624
   56 C4      .YY      -0.00000   0.03746  -0.14945  -0.10136   0.31647
   57 C4      .ZZ      -0.00000   0.03908  -0.10517  -0.07385   0.13193
   58 C4      .XY       0.31934  -0.00000  -0.00000   0.00000   0.00000
   59 C4      .XZ       0.61342   0.00000  -0.00000   0.00000  -0.00000
   60 C4      .YZ      -0.00000   0.01383  -0.07127   0.03840  -0.34186
   61 C5      .S        0.00000  -0.00115   0.01439  -0.01366   0.02604
   62 C5      .S        0.00000   0.24981  -0.00180  -2.30432   0.24968
   63 C5      .X        0.05131   0.00000  -0.00000  -0.00000  -0.00000
   64 C5      .Y       -0.00000   0.10129   0.02479   0.12915  -0.14524
   65 C5      .Z        0.00000  -0.16070  -0.01910   0.24732   0.00321
   66 C5      .S       -0.00000  -4.64887   1.45944   6.33787  -2.55649
   67 C5      .X        0.39892   0.00000  -0.00000   0.00000   0.00000
   68 C5      .Y       -0.00000  -0.62226   0.41576   0.90577  -1.67416
   69 C5      .Z       -0.00000  -2.51793   0.64544   0.47916  -0.44311
   70 C5      .XX       0.00000  -0.12278   0.03419   0.28624  -0.06869
   71 C5      .YY      -0.00000  -0.14945   0.03746   0.31647  -0.10136
   72 C5      .ZZ      -0.00000  -0.10517   0.03908   0.13193  -0.07385
   73 C5      .XY       0.03956  -0.00000   0.00000   0.00000   0.00000
   74 C5      .XZ      -0.01286   0.00000   0.00000   0.00000   0.00000
   75 C5      .YZ      -0.00000   0.07127  -0.01383   0.34186  -0.03840
   76 H6      .S        0.00000  -0.09857   0.71270   0.03538  -0.03877
   77 H6      .S       -0.00000  -0.39785   1.91317   0.17420  -0.35297
   78 H7      .S       -0.00000   0.71270  -0.09857  -0.03877   0.03538
   79 H7      .S       -0.00000   1.91317  -0.39785  -0.35297   0.17420
   80 H8      .S        0.00000  -0.00958  -0.09566  -0.00432  -0.37383
   81 H8      .S        0.00000   0.11987  -0.56890  -0.34357  -0.69581
   82 H9      .S        0.00000  -0.09566  -0.00958  -0.37383  -0.00432
   83 H9      .S       -0.00000  -0.56890   0.11987  -0.69581  -0.34357
                          46        47        48        49        50
                           V         V         V         V         V    
     Eigenvalues --    33.80033  33.80033  34.58184  34.58184  39.00031
    1 O1      .S       -0.00000   0.00000  -0.01871  -0.01871  -0.00968
    2 O1      .S       -0.00000  -0.00000   0.04970   0.04970  -0.11407
    3 O1      .X       -0.04199  -0.04199   0.00000   0.00000   0.00000
    4 O1      .Y       -0.00000  -0.00000  -0.04332   0.04332  -0.01481
    5 O1      .Z        0.00000   0.00000   0.00669   0.00669  -0.07401
    6 O1      .S        0.00000  -0.00000   0.44035   0.44035   0.44708
    7 O1      .X       -0.32228  -0.32228  -0.00000   0.00000  -0.00000
    8 O1      .Y        0.00000   0.00000  -0.15418   0.15418  -0.37135
    9 O1      .Z       -0.00000   0.00000  -0.12927  -0.12927  -0.17219
   10 O1      .XX      -0.00000   0.00000  -0.04520  -0.04520  -0.04560
   11 O1      .YY      -0.00000   0.00000  -0.03074  -0.03074   0.10679
   12 O1      .ZZ      -0.00000   0.00000  -0.04723  -0.04723   0.04928
   13 O1      .XY      -0.06926   0.06926  -0.00000  -0.00000   0.00000
   14 O1      .XZ       0.03372   0.03372   0.00000   0.00000   0.00000
   15 O1      .YZ      -0.00000  -0.00000  -0.00179   0.00179   0.16473
   16 C2      .S        0.00000  -0.00000   0.02343  -0.04045   0.00537
   17 C2      .S        0.00000  -0.00000  -0.06208   0.21804   0.12617
   18 C2      .X       -0.72461   0.00447  -0.00000   0.00000   0.00000
   19 C2      .Y        0.00000   0.00000   0.05454   0.09197   0.00044
   20 C2      .Z       -0.00000  -0.00000  -0.15127   0.24969   0.03571
   21 C2      .S       -0.00000  -0.00000   1.59899  -4.13669  -0.76202
   22 C2      .X        1.05273   0.02335   0.00000  -0.00000   0.00000
   23 C2      .Y        0.00000   0.00000  -0.40217   1.90621   0.44128
   24 C2      .Z        0.00000  -0.00000  -0.45779   1.75866   0.55395
   25 C2      .XX       0.00000   0.00000   0.08537  -0.23254  -0.04293
   26 C2      .YY      -0.00000  -0.00000   0.08118  -0.20377  -0.04207
   27 C2      .ZZ       0.00000  -0.00000   0.08889  -0.28806  -0.03668
   28 C2      .XY      -0.04863  -0.00704  -0.00000  -0.00000  -0.00000
   29 C2      .XZ       0.73314  -0.00448  -0.00000   0.00000  -0.00000
   30 C2      .YZ       0.00000   0.00000  -0.00777   0.02597  -0.01413
   31 C3      .S       -0.00000  -0.00000  -0.04045   0.02343  -0.04248
   32 C3      .S       -0.00000   0.00000   0.21804  -0.06208  -1.56713
   33 C3      .X        0.00447  -0.72461  -0.00000  -0.00000  -0.00000
   34 C3      .Y        0.00000   0.00000  -0.09197  -0.05454   0.16358
   35 C3      .Z       -0.00000   0.00000   0.24969  -0.15127  -0.19248
   36 C3      .S        0.00000   0.00000  -4.13669   1.59899   4.42869
   37 C3      .X        0.02335   1.05273   0.00000  -0.00000  -0.00000
   38 C3      .Y        0.00000   0.00000  -1.90621   0.40217  -0.52068
   39 C3      .Z       -0.00000  -0.00000   1.75866  -0.45779  -1.61239
   40 C3      .XX      -0.00000  -0.00000  -0.23254   0.08537   0.18917
   41 C3      .YY      -0.00000  -0.00000  -0.20377   0.08118  -0.33936
   42 C3      .ZZ       0.00000   0.00000  -0.28806   0.08889   0.20214
   43 C3      .XY       0.00704   0.04863  -0.00000   0.00000  -0.00000
   44 C3      .XZ      -0.00448   0.73314  -0.00000  -0.00000   0.00000
   45 C3      .YZ       0.00000  -0.00000  -0.02597   0.00777  -0.72278
   46 C4      .S       -0.00000  -0.00000   0.00581  -0.04721   0.00272
   47 C4      .S       -0.00000  -0.00000   0.17622  -1.06727  -0.05004
   48 C4      .X        0.04665   0.02286   0.00000   0.00000  -0.00000
   49 C4      .Y        0.00000  -0.00000   0.17965   0.17308  -0.01778
   50 C4      .Z       -0.00000  -0.00000  -0.05498  -0.66536   0.03128
   51 C4      .S        0.00000   0.00000  -3.15936   4.99231   0.76380
   52 C4      .X       -0.21333  -0.01681  -0.00000   0.00000  -0.00000
   53 C4      .Y       -0.00000  -0.00000   1.42311  -2.51636  -0.05943
   54 C4      .Z        0.00000   0.00000  -2.37856   5.65006   0.90349
   55 C4      .XX      -0.00000  -0.00000  -0.09328   0.18748   0.02026
   56 C4      .YY      -0.00000   0.00000  -0.08886   0.12797   0.01808
   57 C4      .ZZ      -0.00000  -0.00000  -0.07960   0.09947   0.02717
   58 C4      .XY       0.03546   0.00427  -0.00000  -0.00000   0.00000
   59 C4      .XZ       0.11109  -0.00641  -0.00000  -0.00000  -0.00000
   60 C4      .YZ      -0.00000  -0.00000  -0.03998   0.33533  -0.01127
   61 C5      .S        0.00000   0.00000  -0.04721   0.00581   0.01771
   62 C5      .S        0.00000   0.00000  -1.06727   0.17622   0.22818
   63 C5      .X        0.02286   0.04665   0.00000  -0.00000   0.00000
   64 C5      .Y       -0.00000   0.00000  -0.17308  -0.17965   0.03982
   65 C5      .Z        0.00000  -0.00000  -0.66536  -0.05498  -0.22290
   66 C5      .S       -0.00000  -0.00000   4.99231  -3.15936  -2.70130
   67 C5      .X       -0.01681  -0.21333  -0.00000   0.00000   0.00000
   68 C5      .Y       -0.00000  -0.00000   2.51636  -1.42311   0.53556
   69 C5      .Z       -0.00000  -0.00000   5.65006  -2.37856  -1.78191
   70 C5      .XX       0.00000   0.00000   0.18748  -0.09328  -0.07693
   71 C5      .YY      -0.00000  -0.00000   0.12797  -0.08886  -0.04798
   72 C5      .ZZ       0.00000   0.00000   0.09947  -0.07960  -0.23132
   73 C5      .XY      -0.00427  -0.03546  -0.00000  -0.00000   0.00000
   74 C5      .XZ      -0.00641   0.11109  -0.00000  -0.00000   0.00000
   75 C5      .YZ      -0.00000   0.00000  -0.33533   0.03998  -0.00477
   76 H6      .S        0.00000   0.00000  -0.05893  -0.12364  -0.04774
   77 H6      .S       -0.00000  -0.00000   0.05570  -0.66533  -0.22259
   78 H7      .S        0.00000   0.00000  -0.12364  -0.05893  -0.30836
   79 H7      .S        0.00000   0.00000  -0.66533   0.05570  -0.74056
   80 H8      .S        0.00000  -0.00000  -0.25172   0.73874   0.05336
   81 H8      .S        0.00000   0.00000  -0.78769   2.16846   0.20772
   82 H9      .S       -0.00000  -0.00000   0.73874  -0.25172   0.05354
   83 H9      .S       -0.00000  -0.00000   2.16846  -0.78769  -0.28803
                          51        52        53        54        55
                           V         V         V         V         V    
     Eigenvalues --    39.00031  42.73431  42.73431  43.75167  44.04162
    1 O1      .S       -0.00968   0.00000  -0.00000  -0.00000   0.00000
    2 O1      .S       -0.11407  -0.00000  -0.00000   0.00000   0.00000
    3 O1      .X       -0.00000   0.05108   0.05108  -0.00000   0.01164
    4 O1      .Y        0.01481   0.00000   0.00000   0.85926   0.00000
    5 O1      .Z       -0.07401  -0.00000   0.00000  -0.00000   0.00000
    6 O1      .S        0.44708   0.00000   0.00000  -0.00000  -0.00000
    7 O1      .X        0.00000  -0.18405  -0.18405  -0.00000  -0.09330
    8 O1      .Y        0.37135  -0.00000   0.00000  -3.49685   0.00000
    9 O1      .Z       -0.17219   0.00000  -0.00000  -0.00000   0.00000
   10 O1      .XX      -0.04560   0.00000  -0.00000   0.00000   0.00000
   11 O1      .YY       0.10679  -0.00000  -0.00000   0.00000   0.00000
   12 O1      .ZZ       0.04928  -0.00000  -0.00000  -0.00000   0.00000
   13 O1      .XY       0.00000  -0.11829   0.11829  -0.00000  -0.00664
   14 O1      .XZ      -0.00000   0.09392   0.09392   0.00000   0.00423
   15 O1      .YZ      -0.16473  -0.00000  -0.00000   0.45585  -0.00000
   16 C2      .S       -0.04248  -0.00000   0.00000   0.03032   0.00000
   17 C2      .S       -1.56713  -0.00000   0.00000   0.04266   0.00000
   18 C2      .X       -0.00000   0.56682  -0.00387  -0.00000  -0.01128
   19 C2      .Y       -0.16358   0.00000   0.00000  -0.31524  -0.00000
   20 C2      .Z       -0.19248   0.00000  -0.00000   0.29262  -0.00000
   21 C2      .S        4.42869   0.00000  -0.00000   1.90721  -0.00000
   22 C2      .X       -0.00000  -0.73520   0.14261   0.00000   0.04268
   23 C2      .Y        0.52068  -0.00000   0.00000  -0.98575   0.00000
   24 C2      .Z       -1.61239  -0.00000   0.00000   1.43606   0.00000
   25 C2      .XX       0.18917  -0.00000   0.00000   0.10538   0.00000
   26 C2      .YY      -0.33936  -0.00000  -0.00000   0.19982  -0.00000
   27 C2      .ZZ       0.20214   0.00000  -0.00000   0.15486   0.00000
   28 C2      .XY       0.00000  -0.61812  -0.01631   0.00000  -0.00915
   29 C2      .XZ       0.00000   0.66105   0.00163  -0.00000  -0.00257
   30 C2      .YZ       0.72278  -0.00000   0.00000  -0.07203   0.00000
   31 C3      .S        0.00537   0.00000  -0.00000  -0.03032  -0.00000
   32 C3      .S        0.12617   0.00000   0.00000  -0.04266  -0.00000
   33 C3      .X        0.00000  -0.00387   0.56682   0.00000   0.08435
   34 C3      .Y       -0.00044   0.00000   0.00000  -0.31524  -0.00000
   35 C3      .Z        0.03571   0.00000   0.00000  -0.29262   0.00000
   36 C3      .S       -0.76202  -0.00000  -0.00000  -1.90721   0.00000
   37 C3      .X       -0.00000   0.14261  -0.73520   0.00000   0.32668
   38 C3      .Y       -0.44128  -0.00000  -0.00000  -0.98575   0.00000
   39 C3      .Z        0.55395   0.00000   0.00000  -1.43606  -0.00000
   40 C3      .XX      -0.04293  -0.00000   0.00000  -0.10538  -0.00000
   41 C3      .YY      -0.04207   0.00000   0.00000  -0.19982  -0.00000
   42 C3      .ZZ      -0.03668  -0.00000  -0.00000  -0.15486  -0.00000
   43 C3      .XY      -0.00000   0.01631   0.61812   0.00000   0.00327
   44 C3      .XZ      -0.00000   0.00163   0.66105   0.00000  -0.08967
   45 C3      .YZ       0.01413   0.00000   0.00000  -0.07203   0.00000
   46 C4      .S        0.01771   0.00000   0.00000   0.01158  -0.00000
   47 C4      .S        0.22818   0.00000  -0.00000   0.13521  -0.00000
   48 C4      .X        0.00000   0.06387   0.00812  -0.00000  -0.03498
   49 C4      .Y       -0.03982  -0.00000   0.00000   0.02574   0.00000
   50 C4      .Z       -0.22290   0.00000   0.00000   0.02489  -0.00000
   51 C4      .S       -2.70130  -0.00000   0.00000  -0.85484   0.00000
   52 C4      .X        0.00000   0.34215  -0.13385  -0.00000   0.03251
   53 C4      .Y       -0.53556   0.00000  -0.00000   1.30942  -0.00000
   54 C4      .Z       -1.78191  -0.00000   0.00000  -0.34037   0.00000
   55 C4      .XX      -0.07693   0.00000   0.00000   0.00170  -0.00000
   56 C4      .YY      -0.04798  -0.00000   0.00000  -0.01428  -0.00000
   57 C4      .ZZ      -0.23132   0.00000   0.00000  -0.01404  -0.00000
   58 C4      .XY       0.00000   0.04268  -0.00157  -0.00000   0.11947
   59 C4      .XZ       0.00000   0.06184  -0.00847  -0.00000   0.00035
   60 C4      .YZ       0.00477  -0.00000   0.00000  -0.00004   0.00000
   61 C5      .S        0.00272  -0.00000  -0.00000  -0.01158   0.00000
   62 C5      .S       -0.05004  -0.00000  -0.00000  -0.13521   0.00000
   63 C5      .X       -0.00000   0.00812   0.06387   0.00000   0.51398
   64 C5      .Y        0.01778  -0.00000  -0.00000   0.02574  -0.00000
   65 C5      .Z        0.03128  -0.00000  -0.00000  -0.02489   0.00000
   66 C5      .S        0.76380   0.00000   0.00000   0.85484  -0.00000
   67 C5      .X        0.00000  -0.13385   0.34215  -0.00000  -0.75115
   68 C5      .Y        0.05943   0.00000   0.00000   1.30942  -0.00000
   69 C5      .Z        0.90349   0.00000   0.00000   0.34037  -0.00000
   70 C5      .XX       0.02026  -0.00000  -0.00000  -0.00170   0.00000
   71 C5      .YY       0.01808   0.00000  -0.00000   0.01428   0.00000
   72 C5      .ZZ       0.02717  -0.00000  -0.00000   0.01404  -0.00000
   73 C5      .XY      -0.00000   0.00157  -0.04268  -0.00000   0.85862
   74 C5      .XZ      -0.00000  -0.00847   0.06184   0.00000  -0.31396
   75 C5      .YZ       0.01127  -0.00000   0.00000  -0.00004   0.00000
   76 H6      .S       -0.30836  -0.00000   0.00000  -0.17833  -0.00000
   77 H6      .S       -0.74056   0.00000  -0.00000  -0.15252  -0.00000
   78 H7      .S       -0.04774  -0.00000   0.00000   0.17833   0.00000
   79 H7      .S       -0.22259  -0.00000   0.00000   0.15252   0.00000
   80 H8      .S        0.05354  -0.00000   0.00000  -0.08979   0.00000
   81 H8      .S       -0.28803  -0.00000  -0.00000  -0.33840   0.00000
   82 H9      .S        0.05336   0.00000   0.00000   0.08979   0.00000
   83 H9      .S        0.20772   0.00000   0.00000   0.33840  -0.00000
                          56        57        58        59        60
                           V         V         V         V         V    
     Eigenvalues --    44.04162  48.03883  48.03883  48.16716  48.16716
    1 O1      .S        0.00000   0.00000  -0.00000  -0.00000  -0.00000
    2 O1      .S        0.00000  -0.00000   0.00000   0.00000   0.00000
    3 O1      .X       -0.01164   0.00159  -0.00159   0.00092   0.00092
    4 O1      .Y       -0.00000  -0.00000   0.00000  -0.00000   0.00000
    5 O1      .Z       -0.00000  -0.00000  -0.00000  -0.00000   0.00000
    6 O1      .S       -0.00000   0.00000  -0.00000  -0.00000  -0.00000
    7 O1      .X        0.09330  -0.27835   0.27835   0.06639   0.06639
    8 O1      .Y        0.00000   0.00000  -0.00000   0.00000   0.00000
    9 O1      .Z        0.00000   0.00000   0.00000   0.00000   0.00000
   10 O1      .XX       0.00000  -0.00000   0.00000  -0.00000   0.00000
   11 O1      .YY       0.00000   0.00000  -0.00000   0.00000  -0.00000
   12 O1      .ZZ       0.00000  -0.00000  -0.00000  -0.00000  -0.00000
   13 O1      .XY      -0.00664   0.04343   0.04343   0.00803  -0.00803
   14 O1      .XZ      -0.00423   0.07692  -0.07692  -0.00870  -0.00870
   15 O1      .YZ       0.00000  -0.00000   0.00000  -0.00000  -0.00000
   16 C2      .S        0.00000  -0.00000  -0.00000  -0.00000   0.00000
   17 C2      .S       -0.00000   0.00000   0.00000   0.00000   0.00000
   18 C2      .X       -0.08435   0.02914   0.38395  -0.08659   0.01730
   19 C2      .Y        0.00000   0.00000   0.00000   0.00000  -0.00000
   20 C2      .Z        0.00000  -0.00000   0.00000   0.00000   0.00000
   21 C2      .S        0.00000  -0.00000   0.00000   0.00000  -0.00000
   22 C2      .X       -0.32668  -0.03775  -0.77441  -0.36107   0.04588
   23 C2      .Y       -0.00000   0.00000  -0.00000  -0.00000   0.00000
   24 C2      .Z       -0.00000  -0.00000  -0.00000  -0.00000   0.00000
   25 C2      .XX      -0.00000   0.00000  -0.00000  -0.00000   0.00000
   26 C2      .YY       0.00000  -0.00000   0.00000  -0.00000  -0.00000
   27 C2      .ZZ      -0.00000  -0.00000  -0.00000  -0.00000   0.00000
   28 C2      .XY       0.00327  -0.01169   0.87043   0.06381  -0.00170
   29 C2      .XZ       0.08967   0.01062   0.47197   0.10458  -0.01123
   30 C2      .YZ      -0.00000   0.00000  -0.00000   0.00000   0.00000
   31 C3      .S       -0.00000  -0.00000   0.00000   0.00000  -0.00000
   32 C3      .S        0.00000  -0.00000   0.00000  -0.00000   0.00000
   33 C3      .X        0.01128  -0.38395  -0.02914   0.01730  -0.08659
   34 C3      .Y        0.00000  -0.00000   0.00000   0.00000  -0.00000
   35 C3      .Z        0.00000  -0.00000   0.00000  -0.00000  -0.00000
   36 C3      .S        0.00000   0.00000  -0.00000   0.00000   0.00000
   37 C3      .X       -0.04268   0.77441   0.03775   0.04588  -0.36107
   38 C3      .Y        0.00000   0.00000  -0.00000  -0.00000   0.00000
   39 C3      .Z       -0.00000  -0.00000   0.00000   0.00000  -0.00000
   40 C3      .XX      -0.00000  -0.00000   0.00000   0.00000  -0.00000
   41 C3      .YY       0.00000   0.00000   0.00000   0.00000   0.00000
   42 C3      .ZZ      -0.00000  -0.00000   0.00000   0.00000   0.00000
   43 C3      .XY      -0.00915   0.87043  -0.01169   0.00170  -0.06381
   44 C3      .XZ       0.00257  -0.47197  -0.01062  -0.01123   0.10458
   45 C3      .YZ      -0.00000  -0.00000   0.00000  -0.00000  -0.00000
   46 C4      .S        0.00000  -0.00000   0.00000   0.00000  -0.00000
   47 C4      .S        0.00000   0.00000  -0.00000  -0.00000   0.00000
   48 C4      .X       -0.51398   0.01788   0.08018  -0.41528  -0.04773
   49 C4      .Y       -0.00000   0.00000  -0.00000  -0.00000   0.00000
   50 C4      .Z        0.00000  -0.00000   0.00000   0.00000  -0.00000
   51 C4      .S       -0.00000   0.00000  -0.00000  -0.00000   0.00000
   52 C4      .X        0.75115   0.06574   0.37893   0.82695  -0.33115
   53 C4      .Y        0.00000  -0.00000   0.00000   0.00000  -0.00000
   54 C4      .Z       -0.00000   0.00000  -0.00000  -0.00000   0.00000
   55 C4      .XX       0.00000  -0.00000   0.00000   0.00000  -0.00000
   56 C4      .YY       0.00000  -0.00000   0.00000   0.00000  -0.00000
   57 C4      .ZZ       0.00000  -0.00000  -0.00000   0.00000  -0.00000
   58 C4      .XY       0.85862  -0.01130   0.00641  -0.53070   0.08385
   59 C4      .XZ       0.31396   0.00076   0.13179   0.82203  -0.02537
   60 C4      .YZ       0.00000   0.00000  -0.00000  -0.00000  -0.00000
   61 C5      .S        0.00000   0.00000  -0.00000  -0.00000   0.00000
   62 C5      .S        0.00000   0.00000   0.00000   0.00000   0.00000
   63 C5      .X        0.03498  -0.08018  -0.01788  -0.04773  -0.41528
   64 C5      .Y       -0.00000  -0.00000   0.00000  -0.00000  -0.00000
   65 C5      .Z       -0.00000   0.00000  -0.00000  -0.00000  -0.00000
   66 C5      .S       -0.00000  -0.00000   0.00000   0.00000  -0.00000
   67 C5      .X       -0.03251  -0.37893  -0.06574  -0.33115   0.82695
   68 C5      .Y        0.00000  -0.00000   0.00000   0.00000  -0.00000
   69 C5      .Z       -0.00000  -0.00000   0.00000   0.00000  -0.00000
   70 C5      .XX       0.00000   0.00000  -0.00000  -0.00000   0.00000
   71 C5      .YY       0.00000   0.00000  -0.00000  -0.00000   0.00000
   72 C5      .ZZ      -0.00000  -0.00000   0.00000  -0.00000  -0.00000
   73 C5      .XY       0.11947   0.00641  -0.01130  -0.08385   0.53070
   74 C5      .XZ      -0.00035  -0.13179  -0.00076  -0.02537   0.82203
   75 C5      .YZ      -0.00000  -0.00000   0.00000  -0.00000  -0.00000
   76 H6      .S       -0.00000   0.00000   0.00000   0.00000  -0.00000
   77 H6      .S        0.00000  -0.00000   0.00000   0.00000  -0.00000
   78 H7      .S       -0.00000  -0.00000  -0.00000  -0.00000  -0.00000
   79 H7      .S       -0.00000   0.00000  -0.00000  -0.00000   0.00000
   80 H8      .S       -0.00000   0.00000  -0.00000  -0.00000   0.00000
   81 H8      .S        0.00000   0.00000  -0.00000   0.00000   0.00000
   82 H9      .S        0.00000   0.00000  -0.00000   0.00000   0.00000
   83 H9      .S        0.00000  -0.00000   0.00000  -0.00000  -0.00000
                          61        62        63        64        65
                           V         V         V         V         V    
     Eigenvalues --    51.57217  52.93507  52.93507  55.53565  55.91366
    1 O1      .S       -0.00000  -0.01629  -0.01629  -0.00000   0.07695
    2 O1      .S       -0.00000  -0.05725  -0.05725  -0.00000   0.11436
    3 O1      .X        0.39851  -0.00000   0.00000   0.00000   0.00000
    4 O1      .Y       -0.00000   0.08617  -0.08617  -0.00000  -0.09800
    5 O1      .Z       -0.00000   0.08634   0.08634   0.00000   0.04324
    6 O1      .S        0.00000   0.38314   0.38314   0.00000  -1.76054
    7 O1      .X       -0.69341  -0.00000   0.00000  -0.00000  -0.00000
    8 O1      .Y        0.00000   0.50643  -0.50643  -0.00000  -0.21066
    9 O1      .Z       -0.00000  -0.15865  -0.15865  -0.00000   0.54456
[...]
   41 C3      .YY       0.91428  -0.26367  -0.06798   0.09534  -0.01412
   42 C3      .ZZ      -1.03865  -0.03764  -0.04292  -0.11724  -0.14918
   43 C3      .XY      -0.00000   0.00000   0.00000   0.00000  -0.00000
   44 C3      .XZ       0.00000  -0.00000   0.00000   0.00000   0.00000
   45 C3      .YZ       0.06822  -0.00679   0.02758  -0.09392  -0.10897
   46 C4      .S        0.01484  -0.00586  -0.12702   0.00275  -0.01738
   47 C4      .S        0.04120  -0.09914   0.61086  -0.02048  -0.12169
   48 C4      .X        0.00000   0.00000  -0.00000  -0.00000  -0.00000
   49 C4      .Y       -0.07442   0.06535  -0.09289  -0.10932   0.10761
   50 C4      .Z        0.03704   0.12718   0.33202   0.10172  -0.02165
   51 C4      .S        0.93660   1.22621   0.83944   0.37500   0.16179
   52 C4      .X       -0.00000   0.00000   0.00000   0.00000   0.00000
   53 C4      .Y       -0.27409  -0.26698   0.90763  -0.23691  -0.52986
   54 C4      .Z        0.08375   0.77333  -1.06709   0.83182   0.57162
   55 C4      .XX       0.04706   0.02231  -0.23968   0.01340  -0.03450
   56 C4      .YY       0.03956   0.01703  -0.73449   0.12793  -0.00050
   57 C4      .ZZ       0.03232   0.06185  -0.67361   0.05905  -0.01081
   58 C4      .XY      -0.00000  -0.00000  -0.00000  -0.00000   0.00000
   59 C4      .XZ      -0.00000   0.00000   0.00000  -0.00000  -0.00000
   60 C4      .YZ      -0.01502  -0.02453   1.03616  -0.12639   0.01026
   61 C5      .S        0.02545  -0.00586   0.00275  -0.12702  -0.01738
   62 C5      .S        0.23882  -0.09914  -0.02048   0.61086  -0.12169
   63 C5      .X       -0.00000  -0.00000  -0.00000  -0.00000  -0.00000
   64 C5      .Y       -0.14539  -0.06535   0.10932   0.09289  -0.10761
   65 C5      .Z        0.28739   0.12718   0.10172   0.33202  -0.02165
   66 C5      .S       -1.74584   1.22621   0.37500   0.83944   0.16179
   67 C5      .X        0.00000  -0.00000   0.00000  -0.00000   0.00000
   68 C5      .Y       -0.96044   0.26698   0.23691  -0.90763   0.52986
   69 C5      .Z       -1.14642   0.77333   0.83182  -1.06709   0.57162
   70 C5      .XX       0.00404   0.02231   0.01340  -0.23968  -0.03450
   71 C5      .YY       0.03913   0.01703   0.12793  -0.73449  -0.00050
   72 C5      .ZZ       0.22114   0.06185   0.05905  -0.67361  -0.01081
   73 C5      .XY       0.00000   0.00000   0.00000  -0.00000   0.00000
   74 C5      .XZ       0.00000  -0.00000   0.00000   0.00000   0.00000
   75 C5      .YZ      -0.17051   0.02453   0.12639  -1.03616  -0.01026
   76 H6      .S       -0.08041  -0.12940   0.03417   0.03928  -0.02026
   77 H6      .S       -0.24729  -0.73760   0.23079   0.07275  -0.10545
   78 H7      .S       -0.10408  -0.12940   0.03928   0.03417  -0.02026
   79 H7      .S        0.45538  -0.73760   0.07275   0.23079  -0.10545
   80 H8      .S       -0.03131   0.02034   0.29604   0.05566   0.08159
   81 H8      .S       -0.04285   0.20527  -1.02346   0.40836   0.35511
   82 H9      .S       -0.10536   0.02034   0.05566   0.29604   0.08159
   83 H9      .S       -0.46091   0.20527   0.40836  -1.02346   0.35511
                          71        72        73        74        75
                           V         V         V         V         V    
     Eigenvalues --    63.19747  63.19747  66.98176  68.06764  68.06764
    1 O1      .S        0.07789   0.07789  -0.07528  -0.03070  -0.03070
    2 O1      .S        0.26903   0.26903  -0.86223  -0.09959  -0.09959
    3 O1      .X        0.00000  -0.00000  -0.00000  -0.00000   0.00000
    4 O1      .Y        0.06910  -0.06910   0.00000  -0.00978   0.00978
    5 O1      .Z        0.03072   0.03072  -0.03815   0.01414   0.01414
    6 O1      .S       -1.99542  -1.99542   2.75536   0.68572   0.68572
    7 O1      .X        0.00000  -0.00000   0.00000   0.00000   0.00000
    8 O1      .Y        0.99363  -0.99363   0.00000   0.07166  -0.07166
    9 O1      .Z        0.56878   0.56878  -0.83203  -0.26458  -0.26458
   10 O1      .XX       0.23996   0.23996  -1.25528  -0.08486  -0.08486
   11 O1      .YY       0.04474   0.04474   0.85843  -0.09106  -0.09106
   12 O1      .ZZ       0.13444   0.13444   0.00456  -0.04913  -0.04913
   13 O1      .XY       0.00000  -0.00000   0.00000  -0.00000   0.00000
   14 O1      .XZ       0.00000   0.00000  -0.00000   0.00000   0.00000
   15 O1      .YZ      -0.15265   0.15265  -0.00000  -0.00751   0.00751
   16 C2      .S        0.02694  -0.18157  -0.03056  -0.00140  -0.00849
   17 C2      .S        0.21943  -0.18648  -0.08695   0.00089   0.04146
   18 C2      .X        0.00000   0.00000   0.00000  -0.00000  -0.00000
   19 C2      .Y       -0.07507  -0.22762   0.40185   0.03277   0.15403
   20 C2      .Z        0.03058  -0.03288  -0.29771  -0.01098   0.17465
   21 C2      .S       -1.35780   5.54830  -0.49801  -0.11302  -1.00316
   22 C2      .X       -0.00000   0.00000  -0.00000  -0.00000  -0.00000
   23 C2      .Y        0.88602  -1.79153   0.35588   0.35797   0.43690
   24 C2      .Z        0.28120  -0.84709  -0.30727  -0.00095   0.58614
   25 C2      .XX       0.03430  -1.48955  -0.05823  -0.00677  -0.04684
   26 C2      .YY      -0.00914   0.05577  -0.25928  -0.03157  -0.09567
   27 C2      .ZZ      -0.01134   0.32461  -0.26475  -0.03127  -0.15793
   28 C2      .XY       0.00000  -0.00000   0.00000  -0.00000   0.00000
   29 C2      .XZ       0.00000  -0.00000   0.00000  -0.00000   0.00000
   30 C2      .YZ       0.00651  -0.24527   0.15397   0.00552  -0.15297
   31 C3      .S       -0.18157   0.02694  -0.03056  -0.00849  -0.00140
   32 C3      .S       -0.18648   0.21943  -0.08695   0.04146   0.00089
   33 C3      .X       -0.00000   0.00000   0.00000  -0.00000  -0.00000
   34 C3      .Y        0.22762   0.07507  -0.40185  -0.15403  -0.03277
   35 C3      .Z       -0.03288   0.03058  -0.29771   0.17465  -0.01098
   36 C3      .S        5.54830  -1.35780  -0.49801  -1.00316  -0.11302
   37 C3      .X       -0.00000   0.00000  -0.00000  -0.00000  -0.00000
   38 C3      .Y        1.79153  -0.88602  -0.35588  -0.43690  -0.35797
   39 C3      .Z       -0.84709   0.28120  -0.30727   0.58614  -0.00095
   40 C3      .XX      -1.48955   0.03430  -0.05823  -0.04684  -0.00677
   41 C3      .YY       0.05577  -0.00914  -0.25928  -0.09567  -0.03157
   42 C3      .ZZ       0.32461  -0.01134  -0.26475  -0.15793  -0.03127
   43 C3      .XY      -0.00000   0.00000  -0.00000   0.00000  -0.00000
   44 C3      .XZ       0.00000   0.00000   0.00000  -0.00000   0.00000
   45 C3      .YZ       0.24527  -0.00651  -0.15397   0.15297  -0.00552
   46 C4      .S       -0.00216   0.02393   0.00628  -0.00084  -0.09668
   47 C4      .S       -0.06774   0.27467   0.03220  -0.06598   0.66161
   48 C4      .X       -0.00000   0.00000   0.00000   0.00000   0.00000
   49 C4      .Y       -0.05126  -0.11331   0.01690  -0.43617   0.24915
   50 C4      .Z       -0.00341  -0.24261   0.04838   0.00892   0.09125
   51 C4      .S        1.58195  -3.58430  -0.09528   0.58803   0.61109
   52 C4      .X       -0.00000  -0.00000   0.00000  -0.00000   0.00000
   53 C4      .Y       -0.65764   0.59198  -0.08446  -0.48535   0.60303
   54 C4      .Z        0.89809  -2.00967  -0.02581  -0.08873   0.80914
   55 C4      .XX       0.01776   0.01313   0.01597   0.04588  -0.09593
   56 C4      .YY       0.04090  -0.09172   0.00820   0.46365  -1.64279
   57 C4      .ZZ       0.01887  -0.20188   0.02057   0.05469   0.47470
   58 C4      .XY      -0.00000   0.00000   0.00000   0.00000  -0.00000
   59 C4      .XZ      -0.00000  -0.00000  -0.00000  -0.00000   0.00000
   60 C4      .YZ       0.00794  -0.07336   0.02520   0.02886  -0.15438
   61 C5      .S        0.02393  -0.00216   0.00628  -0.09668  -0.00084
   62 C5      .S        0.27467  -0.06774   0.03220   0.66161  -0.06598
   63 C5      .X        0.00000  -0.00000   0.00000  -0.00000  -0.00000
   64 C5      .Y        0.11331   0.05126  -0.01690  -0.24915   0.43617
   65 C5      .Z       -0.24261  -0.00341   0.04838   0.09125   0.00892
   66 C5      .S       -3.58430   1.58195  -0.09528   0.61109   0.58803
   67 C5      .X        0.00000  -0.00000   0.00000   0.00000   0.00000
   68 C5      .Y       -0.59198   0.65764   0.08446  -0.60303   0.48535
   69 C5      .Z       -2.00967   0.89809  -0.02581   0.80914  -0.08873
   70 C5      .XX       0.01313   0.01776   0.01597  -0.09593   0.04588
   71 C5      .YY      -0.09172   0.04090   0.00820  -1.64279   0.46365
   72 C5      .ZZ      -0.20188   0.01887   0.02057   0.47470   0.05469
   73 C5      .XY      -0.00000   0.00000   0.00000   0.00000   0.00000
   74 C5      .XZ      -0.00000   0.00000   0.00000   0.00000   0.00000
   75 C5      .YZ       0.07336  -0.00794  -0.02520   0.15438  -0.02886
   76 H6      .S       -0.01757  -0.20555   0.06073  -0.03220   0.01576
   77 H6      .S       -0.28530   0.03414  -0.01787  -0.13099  -0.26978
   78 H7      .S       -0.20555  -0.01757   0.06073   0.01576  -0.03220
   79 H7      .S        0.03414  -0.28530  -0.01787  -0.26978  -0.13099
   80 H8      .S        0.05798  -0.00125   0.02134  -0.03430  -0.03116
   81 H8      .S        0.27212  -0.46301  -0.01641   0.06843   0.00538
   82 H9      .S       -0.00125   0.05798   0.02134  -0.03116  -0.03430
   83 H9      .S       -0.46301   0.27212  -0.01641   0.00538   0.06843
                          76        77        78        79        80
                           V         V         V         V         V    
     Eigenvalues --    68.80546  68.80546  71.09172  87.16675 103.96121
    1 O1      .S        0.00133   0.00133   0.00000   0.54831  -0.00837
    2 O1      .S        0.00642   0.00642  -0.00000   1.54954   0.01213
    3 O1      .X        0.00000  -0.00000  -0.00000   0.00000   0.00000
    4 O1      .Y        0.01086  -0.01086  -0.16849  -0.00000   0.02327
    5 O1      .Z        0.01455   0.01455   0.00000  -0.30864   0.00040
    6 O1      .S       -0.15211  -0.15211  -0.00000  -9.25258   0.30008
    7 O1      .X       -0.00000  -0.00000  -0.00000  -0.00000   0.00000
    8 O1      .Y        0.10139  -0.10139  -0.87333   0.00000   0.26735
    9 O1      .Z        0.13199   0.13199   0.00000   1.94819  -0.12014
   10 O1      .XX      -0.00687  -0.00687   0.00000   1.78819  -0.00675
   11 O1      .YY      -0.01812  -0.01812   0.00000   1.83167  -0.02931
   12 O1      .ZZ      -0.01153  -0.01153   0.00000   1.81454  -0.02745
   13 O1      .XY       0.00000  -0.00000  -0.00000   0.00000   0.00000
   14 O1      .XZ      -0.00000  -0.00000   0.00000   0.00000  -0.00000
   15 O1      .YZ      -0.02804   0.02804   1.42727   0.00000  -0.01890
   16 C2      .S       -0.00512   0.01580   0.01989   0.02960   0.01156
   17 C2      .S       -0.00000  -0.06957   0.02108  -0.15919   0.35690
   18 C2      .X        0.00000  -0.00000   0.00000   0.00000   0.00000
   19 C2      .Y        0.00181  -0.17213  -0.40771  -0.15240  -0.05936
   20 C2      .Z        0.05652  -0.57023   0.25647   0.06150  -0.15141
   21 C2      .S       -0.47724   2.12289   1.27379   2.47303  -3.39326
   22 C2      .X       -0.00000   0.00000  -0.00000   0.00000  -0.00000
   23 C2      .Y        0.18993  -0.77914  -0.98112  -1.95321   1.80259
   24 C2      .Z        0.05427  -1.03915  -0.41330   0.22534   1.40895
   25 C2      .XX      -0.01665   0.07098   0.04932   0.13482  -0.00873
   26 C2      .YY      -0.00252   0.16636   0.34544   0.05346  -0.05299
   27 C2      .ZZ      -0.02600   0.50036   0.20348   0.08145   0.08344
   28 C2      .XY       0.00000  -0.00000  -0.00000   0.00000  -0.00000
   29 C2      .XZ       0.00000  -0.00000   0.00000   0.00000  -0.00000
   30 C2      .YZ       0.00621   0.11649  -0.22541   0.05781   0.02943
   31 C3      .S        0.01580  -0.00512  -0.01989   0.02960   0.00309
   32 C3      .S       -0.06957  -0.00000  -0.02108  -0.15919  -0.09656
   33 C3      .X        0.00000   0.00000   0.00000   0.00000  -0.00000
   34 C3      .Y        0.17213  -0.00181  -0.40771   0.15240  -0.02332
   35 C3      .Z       -0.57023   0.05652  -0.25647   0.06150  -0.08300
   36 C3      .S        2.12289  -0.47724  -1.27379   2.47303   1.61535
   37 C3      .X        0.00000   0.00000   0.00000   0.00000  -0.00000
   38 C3      .Y        0.77914  -0.18993  -0.98112   1.95321   1.00577
   39 C3      .Z       -1.03915   0.05427   0.41330   0.22534  -0.46468
   40 C3      .XX       0.07098  -0.01665  -0.04932   0.13482   0.03233
   41 C3      .YY       0.16636  -0.00252  -0.34544   0.05346   0.03405
   42 C3      .ZZ       0.50036  -0.02600  -0.20348   0.08145   0.04140
   43 C3      .XY      -0.00000   0.00000   0.00000   0.00000  -0.00000
   44 C3      .XZ       0.00000   0.00000   0.00000   0.00000  -0.00000
   45 C3      .YZ      -0.11649  -0.00621  -0.22541  -0.05781   0.00151
   46 C4      .S       -0.01147  -0.03156   0.01840  -0.00312  -0.50292
   47 C4      .S       -0.12635   1.34719   0.16385   0.03820   1.98851
   48 C4      .X       -0.00000  -0.00000  -0.00000   0.00000  -0.00000
   49 C4      .Y       -0.16044  -0.04066  -0.00643  -0.10991   0.07303
   50 C4      .Z       -0.03136  -0.22203  -0.02697  -0.10389  -0.16439
   51 C4      .S        1.37783  -3.38370  -1.82349  -0.59570   7.01778
   52 C4      .X        0.00000  -0.00000   0.00000  -0.00000   0.00000
   53 C4      .Y       -0.74771   0.61345   0.82070   0.56778  -2.28071
   54 C4      .Z        0.61145  -1.81092  -0.95774  -0.63565   2.53181
   55 C4      .XX       0.00081   0.59611   0.00826  -0.02727  -2.07873
   56 C4      .YY       0.13330  -0.56803  -0.04152  -0.01622  -1.29965
   57 C4      .ZZ       0.05771  -1.45372  -0.04183  -0.00301  -1.69604
   58 C4      .XY      -0.00000  -0.00000  -0.00000  -0.00000  -0.00000
   59 C4      .XZ       0.00000  -0.00000   0.00000   0.00000   0.00000
   60 C4      .YZ       0.02223  -0.37534  -0.00057  -0.00292  -0.23193
   61 C5      .S       -0.03156  -0.01147  -0.01840  -0.00312   0.02995
   62 C5      .S        1.34719  -0.12635  -0.16385   0.03820   0.34537
   63 C5      .X        0.00000  -0.00000  -0.00000  -0.00000   0.00000
   64 C5      .Y        0.04066   0.16044  -0.00643   0.10991  -0.04172
   65 C5      .Z       -0.22203  -0.03136   0.02697  -0.10389   0.01096
   66 C5      .S       -3.38370   1.37783   1.82349  -0.59570  -4.20686
   67 C5      .X       -0.00000   0.00000  -0.00000   0.00000  -0.00000
   68 C5      .Y       -0.61345   0.74771   0.82070  -0.56778  -2.10673
   69 C5      .Z       -1.81092   0.61145   0.95774  -0.63565  -1.57685
   70 C5      .XX       0.59611   0.00081  -0.00826  -0.02727   0.01636
   71 C5      .YY      -0.56803   0.13330   0.04152  -0.01622  -0.03558
   72 C5      .ZZ      -1.45372   0.05771   0.04183  -0.00301  -0.02634
   73 C5      .XY      -0.00000   0.00000  -0.00000  -0.00000  -0.00000
   74 C5      .XZ      -0.00000   0.00000   0.00000   0.00000  -0.00000
   75 C5      .YZ       0.37534  -0.02223  -0.00057   0.00292  -0.02862
   76 H6      .S       -0.00292  -0.02848   0.04118   0.02059  -0.05954
   77 H6      .S       -0.00597   0.31764   0.37918   0.44601  -0.62170
   78 H7      .S       -0.02848  -0.00292  -0.04118   0.02059   0.03481
   79 H7      .S        0.31764  -0.00597  -0.37918   0.44601   0.28240
   80 H8      .S        0.02404   0.21612  -0.04566  -0.08311   0.11756
   81 H8      .S        0.22790  -0.47657  -0.35861  -0.24531   0.49073
   82 H9      .S        0.21612   0.02404   0.04566  -0.08311  -0.04752
   83 H9      .S       -0.47657   0.22790   0.35861  -0.24531  -0.67879
                          81        82        83
                           V         V         V    
     Eigenvalues --   103.96121 110.21199 110.21199
    1 O1      .S       -0.00837  -0.00283  -0.00283
    2 O1      .S        0.01213   0.03056   0.03056
    3 O1      .X       -0.00000  -0.00000   0.00000
    4 O1      .Y       -0.02327   0.07739  -0.07739
    5 O1      .Z        0.00040  -0.08056  -0.08056
    6 O1      .S        0.30008  -0.09800  -0.09800
    7 O1      .X       -0.00000  -0.00000   0.00000
    8 O1      .Y       -0.26735   0.08984  -0.08984
    9 O1      .Z       -0.12014  -0.16396  -0.16396
   10 O1      .XX      -0.00675  -0.01299  -0.01299
   11 O1      .YY      -0.02931   0.14724   0.14724
   12 O1      .ZZ      -0.02745   0.12061   0.12061
   13 O1      .XY       0.00000   0.00000  -0.00000
   14 O1      .XZ       0.00000   0.00000   0.00000
   15 O1      .YZ       0.01890  -0.09309   0.09309
   16 C2      .S        0.00309  -0.45445   0.00606
   17 C2      .S       -0.09656   2.83447   0.11554
   18 C2      .X       -0.00000  -0.00000   0.00000
   19 C2      .Y        0.02332   0.09605  -0.00285
   20 C2      .Z       -0.08300   0.01499   0.01332
   21 C2      .S        1.61535   2.72720  -1.09236
   22 C2      .X        0.00000   0.00000  -0.00000
   23 C2      .Y       -1.00577  -0.34539   0.64451
   24 C2      .Z       -0.46468  -0.59861   0.59796
   25 C2      .XX       0.03233  -1.41966  -0.00555
   26 C2      .YY       0.03405  -2.04002  -0.04031
   27 C2      .ZZ       0.04140  -2.03784  -0.02943
   28 C2      .XY      -0.00000  -0.00000   0.00000
   29 C2      .XZ      -0.00000  -0.00000   0.00000
   30 C2      .YZ      -0.00151  -0.09318   0.00061
   31 C3      .S        0.01156   0.00606  -0.45445
   32 C3      .S        0.35690   0.11554   2.83447
   33 C3      .X       -0.00000   0.00000  -0.00000
   34 C3      .Y        0.05936   0.00285  -0.09605
   35 C3      .Z       -0.15141   0.01332   0.01499
   36 C3      .S       -3.39326  -1.09236   2.72720
   37 C3      .X        0.00000   0.00000  -0.00000
   38 C3      .Y       -1.80259  -0.64451   0.34539
   39 C3      .Z        1.40895   0.59796  -0.59861
   40 C3      .XX      -0.00873  -0.00555  -1.41966
   41 C3      .YY      -0.05299  -0.04031  -2.04002
   42 C3      .ZZ       0.08344  -0.02943  -2.03784
   43 C3      .XY       0.00000  -0.00000  -0.00000
   44 C3      .XZ      -0.00000   0.00000  -0.00000
   45 C3      .YZ      -0.02943  -0.00061   0.09318
   46 C4      .S        0.02995   0.03613  -0.01593
   47 C4      .S        0.34537   0.30647  -0.12122
   48 C4      .X        0.00000   0.00000  -0.00000
   49 C4      .Y        0.04172   0.08056   0.01292
   50 C4      .Z        0.01096   0.37490  -0.03313
   51 C4      .S       -4.20686  -2.33245   1.65060
   52 C4      .X       -0.00000  -0.00000   0.00000
   53 C4      .Y        2.10673   0.38403  -0.57147
   54 C4      .Z       -1.57685  -1.27033   1.05070
   55 C4      .XX       0.01636   0.07559  -0.01828
   56 C4      .YY      -0.03558   0.08187  -0.01809
   57 C4      .ZZ      -0.02634   0.26110   0.00141
   58 C4      .XY       0.00000   0.00000  -0.00000
   59 C4      .XZ      -0.00000  -0.00000   0.00000
   60 C4      .YZ       0.02862   0.04390   0.00976
   61 C5      .S       -0.50292  -0.01593   0.03613
   62 C5      .S        1.98851  -0.12122   0.30647
   63 C5      .X       -0.00000  -0.00000  -0.00000
   64 C5      .Y       -0.07303  -0.01292  -0.08056
   65 C5      .Z       -0.16439  -0.03313   0.37490
   66 C5      .S        7.01778   1.65060  -2.33245
   67 C5      .X        0.00000   0.00000   0.00000
   68 C5      .Y        2.28071   0.57147  -0.38403
   69 C5      .Z        2.53181   1.05070  -1.27033
   70 C5      .XX      -2.07873  -0.01828   0.07559
   71 C5      .YY      -1.29965  -0.01809   0.08187
   72 C5      .ZZ      -1.69604   0.00141   0.26110
   73 C5      .XY       0.00000   0.00000   0.00000
   74 C5      .XZ       0.00000   0.00000   0.00000
   75 C5      .YZ       0.23193  -0.00976  -0.04390
   76 H6      .S        0.03481   0.32290  -0.03249
   77 H6      .S        0.28240  -0.36844  -0.26500
   78 H7      .S       -0.05954  -0.03249   0.32290
   79 H7      .S       -0.62170  -0.26500  -0.36844
   80 H8      .S       -0.04752  -0.01967   0.05005
   81 H8      .S       -0.67879  -0.29178   0.34827
   82 H9      .S        0.11756   0.05005  -0.01967
   83 H9      .S        0.49073   0.34827  -0.29178
