 Entering Gaussian System

 Standard orientation:



 -------------------------------------------------------
     1  25    0     0.000000     0.000000     0.000000
     2   8    0     0.920665     0.920665     0.920665
     3   8    0    -0.920665    -0.920665     0.920665
     4   8    0    -0.920665     0.920665    -0.920665
     5   8    0     0.920665    -0.920665    -0.920665
 -------------------------------------------------------

 AO basis set (Overlap normalization):
 Atom Mn1     Shell     1 S    6
   5.6347140000e+04   1.7715799860e-03
   8.4609430000e+03   1.3570809890e-02
   1.9273250000e+03   6.6906049480e-02
   5.4323430000e+02   2.3185409820e-01
   1.7399050000e+02   4.7990459630e-01
   5.9360050000e+01   3.4957369730e-01
 Atom Mn1     Shell     2 SP   6
   1.1654120000e+03   2.3887510270e-03   3.9773179260e-03
   2.7732760000e+02   3.1817080360e-02   3.1031119420e-02
   8.9472780000e+01   1.2546700140e-01   1.3518939750e-01
   3.3482560000e+01  -2.9554310330e-02   3.4573869350e-01
   1.3540370000e+01  -6.1751600700e-01   4.6292049130e-01
   5.5579720000e+00  -4.5444580510e-01   2.0905919610e-01
 Atom Mn1     Shell     3 SP   6
   4.5835320000e+01  -3.6658561370e-03  -6.8875779020e-03
   1.5187770000e+01   7.2319712690e-02  -2.8468159590e-02
   6.5007100000e+00   2.5444860950e-01   6.0318319140e-02
   2.7515830000e+00  -2.9103801080e-01   3.9389609440e-01
   1.1454040000e+00  -7.3598602740e-01   5.0137689280e-01
   4.5368700000e-01  -1.9976170740e-01   1.7922639740e-01
 Atom Mn1     Shell     4 SP   3
   1.7579990000e+00   5.6285731860e-02  -5.0350238250e-01
   6.6702200000e-01   2.8974916100e-01   2.3450109190e-01
   1.0512900000e-01  -1.1406532400e+00   9.1412566820e-01
 Atom Mn1     Shell     5 SP   1
   3.8418000000e-02   1.0000000000e+00   1.0000000000e+00
 Atom Mn1     Shell     6 D    3
   2.0943550000e+01   8.6727023140e-02
   5.5104860000e+00   3.8418831390e-01
   1.6650380000e+00   7.0690712560e-01
 Atom Mn1     Shell     7 D    1
   4.6173300000e-01   1.0000000000e+00
 Atom Mn1     Shell     8 F    1
   8.0000000000e-01   1.0000000000e+00
 Atom  O2     Shell     9 S    6
   5.4846716600e+03   1.8310744300e-03
   8.2523494600e+02   1.3950172200e-02
   1.8804695800e+02   6.8445078100e-02
   5.2964500000e+01   2.3271433600e-01
   1.6897570400e+01   4.7019289800e-01
   5.7996353400e+00   3.5852085300e-01
 Atom  O2     Shell    10 SP   3
   1.5539616250e+01  -1.1077754950e-01   7.0874268230e-02
   3.5999335860e+00  -1.4802626270e-01   3.3975283910e-01
   1.0137617500e+00   1.1307670150e+00   7.2715857730e-01
 Atom  O2     Shell    11 SP   1
   2.7000582260e-01   1.0000000000e+00   1.0000000000e+00
 Atom  O2     Shell    12 D    1
   8.0000000000e-01   1.0000000000e+00
 Atom  O3     Shell    13 S    6
   5.4846716600e+03   1.8310744300e-03
   8.2523494600e+02   1.3950172200e-02
   1.8804695800e+02   6.8445078100e-02
   5.2964500000e+01   2.3271433600e-01
   1.6897570400e+01   4.7019289800e-01
   5.7996353400e+00   3.5852085300e-01
 Atom  O3     Shell    14 SP   3
   1.5539616250e+01  -1.1077754950e-01   7.0874268230e-02
   3.5999335860e+00  -1.4802626270e-01   3.3975283910e-01
   1.0137617500e+00   1.1307670150e+00   7.2715857730e-01
 Atom  O3     Shell    15 SP   1
   2.7000582260e-01   1.0000000000e+00   1.0000000000e+00
 Atom  O3     Shell    16 D    1
   8.0000000000e-01   1.0000000000e+00
 Atom  O4     Shell    17 S    6
   5.4846716600e+03   1.8310744300e-03
   8.2523494600e+02   1.3950172200e-02
   1.8804695800e+02   6.8445078100e-02
   5.2964500000e+01   2.3271433600e-01
   1.6897570400e+01   4.7019289800e-01
   5.7996353400e+00   3.5852085300e-01
 Atom  O4     Shell    18 SP   3
   1.5539616250e+01  -1.1077754950e-01   7.0874268230e-02
   3.5999335860e+00  -1.4802626270e-01   3.3975283910e-01
   1.0137617500e+00   1.1307670150e+00   7.2715857730e-01
 Atom  O4     Shell    19 SP   1
   2.7000582260e-01   1.0000000000e+00   1.0000000000e+00
 Atom  O4     Shell    20 D    1
   8.0000000000e-01   1.0000000000e+00
 Atom  O5     Shell    21 S    6
   5.4846716600e+03   1.8310744300e-03
   8.2523494600e+02   1.3950172200e-02
   1.8804695800e+02   6.8445078100e-02
   5.2964500000e+01   2.3271433600e-01
   1.6897570400e+01   4.7019289800e-01
   5.7996353400e+00   3.5852085300e-01
 Atom  O5     Shell    22 SP   3
   1.5539616250e+01  -1.1077754950e-01   7.0874268230e-02
   3.5999335860e+00  -1.4802626270e-01   3.3975283910e-01
   1.0137617500e+00   1.1307670150e+00   7.2715857730e-01
 Atom  O5     Shell    23 SP   1
   2.7000582260e-01   1.0000000000e+00   1.0000000000e+00
 Atom  O5     Shell    24 D    1
   8.0000000000e-01   1.0000000000e+00

 Molecular Orbital Coefficients:
                           1         2         3         4         5
                           O         O         O         O         O    
     Eigenvalues --  -6221.1198-858.62156-636.29285-636.29284-636.29284
    1 Mn1     .S        0.92348   0.49077  -0.00000  -0.00000  -0.00000
    2 Mn1     .S       -0.21214   1.10416  -0.00000  -0.00000   0.00000
    3 Mn1     .X        0.00000  -0.00000  -0.00000   1.01388  -0.00000
    4 Mn1     .Y        0.00000   0.00000  -0.00000  -0.00000   1.01388
    5 Mn1     .Z        0.00000   0.00000   1.01388  -0.00000  -0.00000
    6 Mn1     .S        0.12307  -0.29070   0.00000   0.00000   0.00000
    7 Mn1     .X       -0.00000  -0.00000  -0.00000  -0.04445  -0.00000
    8 Mn1     .Y       -0.00000  -0.00000  -0.00000  -0.00000  -0.04445
    9 Mn1     .Z       -0.00000   0.00000  -0.04445  -0.00000  -0.00000
   10 Mn1     .S        0.00026   0.00439  -0.00000   0.00000   0.00000
   11 Mn1     .X        0.00000  -0.00000  -0.00000  -0.00162  -0.00000
   12 Mn1     .Y       -0.00000  -0.00000  -0.00000  -0.00000  -0.00162
   13 Mn1     .Z        0.00000   0.00000  -0.00161  -0.00000  -0.00000
   14 Mn1     .S       -0.00016   0.00219  -0.00000   0.00000   0.00000
   15 Mn1     .X        0.00000  -0.00000  -0.00000   0.00074  -0.00000
   16 Mn1     .Y        0.00000   0.00000  -0.00000  -0.00000   0.00074
   17 Mn1     .Z       -0.00000  -0.00000   0.00074  -0.00000  -0.00000
   18 Mn1     .XX       0.00972   0.01012   0.00000   0.00000   0.00000
   19 Mn1     .YY       0.00972   0.01012   0.00000   0.00000   0.00000
   20 Mn1     .ZZ       0.00972   0.01012  -0.00000  -0.00000  -0.00000
   21 Mn1     .XY       0.00000   0.00000   0.00008   0.00000   0.00000
   22 Mn1     .XZ       0.00000  -0.00000   0.00000   0.00000   0.00008
   23 Mn1     .YZ      -0.00000   0.00000   0.00000   0.00008   0.00000
   24 Mn1     .XX       0.00185   0.00126   0.00000   0.00000   0.00000
   25 Mn1     .YY       0.00185   0.00126   0.00000   0.00000   0.00000
   26 Mn1     .ZZ       0.00185   0.00126  -0.00000  -0.00000  -0.00000
   27 Mn1     .XY       0.00000   0.00000   0.00022   0.00000   0.00000
   28 Mn1     .XZ       0.00000  -0.00000   0.00000   0.00000   0.00022
   29 Mn1     .YZ      -0.00000   0.00000   0.00000   0.00022   0.00000
   30 Mn1     .XXX      0.00000  -0.00000   0.00000  -0.00000  -0.00000
   31 Mn1     .YYY      0.00000  -0.00000   0.00000   0.00000   0.00001
   32 Mn1     .ZZZ     -0.00000   0.00000  -0.00001  -0.00000  -0.00000
   33 Mn1     .XYY      0.00000  -0.00000   0.00000  -0.00001  -0.00000
   34 Mn1     .XXY      0.00000  -0.00000   0.00000   0.00000   0.00001
   35 Mn1     .XXZ     -0.00000   0.00000  -0.00001  -0.00000  -0.00000
   36 Mn1     .XZZ      0.00000   0.00000   0.00000   0.00001  -0.00000
   37 Mn1     .YZZ     -0.00000  -0.00000  -0.00000  -0.00000   0.00001
   38 Mn1     .YYZ     -0.00000   0.00000  -0.00001  -0.00000  -0.00000
   39 Mn1     .XYZ      0.00003  -0.00008   0.00000  -0.00000  -0.00000
   40 O2      .S       -0.00038   0.00125   0.00004   0.00004   0.00004
   41 O2      .S        0.00088  -0.00304   0.00006   0.00006   0.00006
   42 O2      .X       -0.00078   0.00283   0.00022   0.00026   0.00022
   43 O2      .Y       -0.00078   0.00283   0.00022   0.00022   0.00026
   44 O2      .Z       -0.00078   0.00283   0.00026   0.00022   0.00022
   45 O2      .S        0.00129  -0.00425   0.00005   0.00005   0.00005
   46 O2      .X       -0.00073   0.00264   0.00026   0.00031   0.00026
   47 O2      .Y       -0.00073   0.00264   0.00026   0.00026   0.00031
   48 O2      .Z       -0.00073   0.00264   0.00031   0.00026   0.00026
   49 O2      .XX      -0.00006   0.00016  -0.00001  -0.00001  -0.00001
   50 O2      .YY      -0.00006   0.00016  -0.00001  -0.00001  -0.00001
   51 O2      .ZZ      -0.00006   0.00016  -0.00001  -0.00001  -0.00001
   52 O2      .XY      -0.00002   0.00007  -0.00001  -0.00001  -0.00001
   53 O2      .XZ      -0.00002   0.00007  -0.00001  -0.00001  -0.00001
   54 O2      .YZ      -0.00002   0.00007  -0.00001  -0.00001  -0.00001
   55 O3      .S       -0.00038   0.00125   0.00004  -0.00004  -0.00004
   56 O3      .S        0.00088  -0.00304   0.00006  -0.00006  -0.00006
   57 O3      .X        0.00078  -0.00283  -0.00022   0.00026   0.00022
   58 O3      .Y        0.00078  -0.00283  -0.00022   0.00022   0.00026
   59 O3      .Z       -0.00078   0.00283   0.00026  -0.00022  -0.00022
   60 O3      .S        0.00129  -0.00425   0.00005  -0.00005  -0.00005
   61 O3      .X        0.00073  -0.00264  -0.00026   0.00031   0.00026
   62 O3      .Y        0.00073  -0.00264  -0.00026   0.00026   0.00031
   63 O3      .Z       -0.00073   0.00264   0.00031  -0.00026  -0.00026
   64 O3      .XX      -0.00006   0.00016  -0.00001   0.00001   0.00001
   65 O3      .YY      -0.00006   0.00016  -0.00001   0.00001   0.00001
   66 O3      .ZZ      -0.00006   0.00016  -0.00001   0.00001   0.00001
   67 O3      .XY      -0.00002   0.00007  -0.00001   0.00001   0.00001
   68 O3      .XZ       0.00002  -0.00007   0.00001  -0.00001  -0.00001
   69 O3      .YZ       0.00002  -0.00007   0.00001  -0.00001  -0.00001
   70 O4      .S       -0.00038   0.00125  -0.00004  -0.00004   0.00004
   71 O4      .S        0.00088  -0.00304  -0.00006  -0.00006   0.00006
   72 O4      .X        0.00078  -0.00283   0.00022   0.00026  -0.00022
   73 O4      .Y       -0.00078   0.00283  -0.00022  -0.00022   0.00026
   74 O4      .Z        0.00078  -0.00283   0.00026   0.00022  -0.00022
   75 O4      .S        0.00129  -0.00425  -0.00005  -0.00005   0.00005
   76 O4      .X        0.00073  -0.00264   0.00026   0.00031  -0.00026
   77 O4      .Y       -0.00073   0.00264  -0.00026  -0.00026   0.00031
   78 O4      .Z        0.00073  -0.00264   0.00031   0.00026  -0.00026
   79 O4      .XX      -0.00006   0.00016   0.00001   0.00001  -0.00001
   80 O4      .YY      -0.00006   0.00016   0.00001   0.00001  -0.00001
   81 O4      .ZZ      -0.00006   0.00016   0.00001   0.00001  -0.00001
   82 O4      .XY       0.00002  -0.00007  -0.00001  -0.00001   0.00001
   83 O4      .XZ      -0.00002   0.00007   0.00001   0.00001  -0.00001
   84 O4      .YZ       0.00002  -0.00007  -0.00001  -0.00001   0.00001
   85 O5      .S       -0.00038   0.00125  -0.00004   0.00004  -0.00004
   86 O5      .S        0.00088  -0.00304  -0.00006   0.00006  -0.00006
   87 O5      .X       -0.00078   0.00283  -0.00022   0.00026  -0.00022
   88 O5      .Y        0.00078  -0.00283   0.00022  -0.00022   0.00026
   89 O5      .Z        0.00078  -0.00283   0.00026  -0.00022   0.00022
   90 O5      .S        0.00129  -0.00425  -0.00005   0.00005  -0.00005
   91 O5      .X       -0.00073   0.00264  -0.00026   0.00031  -0.00026
   92 O5      .Y        0.00073  -0.00264   0.00026  -0.00026   0.00031
   93 O5      .Z        0.00073  -0.00264   0.00031  -0.00026   0.00026
   94 O5      .XX      -0.00006   0.00016   0.00001  -0.00001   0.00001
   95 O5      .YY      -0.00006   0.00016   0.00001  -0.00001   0.00001
   96 O5      .ZZ      -0.00006   0.00016   0.00001  -0.00001   0.00001
   97 O5      .XY       0.00002  -0.00007  -0.00001   0.00001  -0.00001
   98 O5      .XZ       0.00002  -0.00007  -0.00001   0.00001  -0.00001
   99 O5      .YZ      -0.00002   0.00007   0.00001  -0.00001   0.00001
                           6         7         8         9        10
                           O         O         O         O         O    
     Eigenvalues --  -509.70612-509.70612-509.70612-509.70612-153.58546
    1 Mn1     .S        0.00029   0.00029   0.00029   0.00029  -0.05648
    2 Mn1     .S        0.00137   0.00137   0.00137   0.00137  -0.11250
    3 Mn1     .X        0.00098  -0.00098   0.00098  -0.00098  -0.00000
    4 Mn1     .Y        0.00098  -0.00098  -0.00098   0.00098   0.00000
    5 Mn1     .Z       -0.00098  -0.00098   0.00098   0.00098  -0.00000
    6 Mn1     .S       -0.00199  -0.00199  -0.00199  -0.00199   1.13540
    7 Mn1     .X       -0.00121   0.00121  -0.00121   0.00121  -0.00000
    8 Mn1     .Y       -0.00121   0.00121   0.00121  -0.00121   0.00000
    9 Mn1     .Z        0.00121   0.00121  -0.00121  -0.00121  -0.00000
   10 Mn1     .S        0.00558   0.00558   0.00558   0.00558   0.00620
   11 Mn1     .X        0.00514  -0.00514   0.00514  -0.00514  -0.00000
   12 Mn1     .Y        0.00514  -0.00514  -0.00514   0.00514   0.00000
   13 Mn1     .Z       -0.00514  -0.00514   0.00514   0.00514  -0.00000
   14 Mn1     .S        0.00146   0.00146   0.00146   0.00146  -0.00660
   15 Mn1     .X       -0.00065   0.00065  -0.00065   0.00065   0.00000
   16 Mn1     .Y       -0.00065   0.00065   0.00065  -0.00065  -0.00000
   17 Mn1     .Z        0.00065   0.00065  -0.00065  -0.00065   0.00000
   18 Mn1     .XX       0.00044   0.00044   0.00044   0.00044   0.01671
   19 Mn1     .YY       0.00044   0.00044   0.00044   0.00044   0.01671
   20 Mn1     .ZZ       0.00044   0.00044   0.00044   0.00044   0.01671
   21 Mn1     .XY      -0.00068  -0.00068   0.00068   0.00068   0.00000
   22 Mn1     .XZ       0.00068  -0.00068  -0.00068   0.00068  -0.00000
   23 Mn1     .YZ       0.00068  -0.00068   0.00068  -0.00068  -0.00000
   24 Mn1     .XX      -0.00066  -0.00066  -0.00066  -0.00066   0.01546
   25 Mn1     .YY      -0.00066  -0.00066  -0.00066  -0.00066   0.01546
   26 Mn1     .ZZ      -0.00066  -0.00066  -0.00066  -0.00066   0.01546
   27 Mn1     .XY      -0.00172  -0.00172   0.00172   0.00172   0.00000
   28 Mn1     .XZ       0.00172  -0.00172  -0.00172   0.00172  -0.00000
   29 Mn1     .YZ       0.00172  -0.00172   0.00172  -0.00172  -0.00000
   30 Mn1     .XXX     -0.00000   0.00000  -0.00000   0.00000  -0.00000
   31 Mn1     .YYY      0.00000  -0.00000  -0.00000   0.00000  -0.00000
   32 Mn1     .ZZZ      0.00000   0.00000  -0.00000  -0.00000  -0.00000
   33 Mn1     .XYY     -0.00000   0.00000  -0.00000   0.00000  -0.00000
   34 Mn1     .XXY      0.00000  -0.00000  -0.00000   0.00000  -0.00000
   35 Mn1     .XXZ      0.00000   0.00000  -0.00000  -0.00000  -0.00000
   36 Mn1     .XZZ      0.00000  -0.00000   0.00000  -0.00000  -0.00000
   37 Mn1     .YZZ      0.00000  -0.00000  -0.00000   0.00000   0.00000
   38 Mn1     .YYZ      0.00000   0.00000  -0.00000  -0.00000  -0.00000
   39 Mn1     .XYZ     -0.00018  -0.00018  -0.00018  -0.00018   0.00060
   40 O2      .S       -0.00014   1.01276  -0.00014  -0.00014  -0.00893
   41 O2      .S       -0.00011  -0.03244  -0.00011  -0.00011   0.02040
   42 O2      .X       -0.00059   0.00006  -0.00059   0.00036  -0.02692
   43 O2      .Y       -0.00059   0.00006   0.00036  -0.00059  -0.02692
   44 O2      .Z        0.00036   0.00006  -0.00059  -0.00059  -0.02692
   45 O2      .S        0.00106  -0.05154   0.00106   0.00106   0.03234
   46 O2      .X       -0.00117  -0.00154  -0.00117   0.00054  -0.02521
   47 O2      .Y       -0.00117  -0.00154   0.00054  -0.00117  -0.02521
   48 O2      .Z        0.00054  -0.00154  -0.00117  -0.00117  -0.02521
   49 O2      .XX      -0.00009  -0.00757  -0.00009  -0.00014  -0.00173
   50 O2      .YY      -0.00009  -0.00757  -0.00014  -0.00009  -0.00173
   51 O2      .ZZ      -0.00014  -0.00757  -0.00009  -0.00009  -0.00173
   52 O2      .XY       0.00004   0.00024   0.00003   0.00003  -0.00051
   53 O2      .XZ       0.00003   0.00024   0.00004   0.00003  -0.00051
   54 O2      .YZ       0.00003   0.00024   0.00003   0.00004  -0.00051
   55 O3      .S        1.01276  -0.00014  -0.00014  -0.00014  -0.00893
   56 O3      .S       -0.03244  -0.00011  -0.00011  -0.00011   0.02040
   57 O3      .X       -0.00006   0.00059  -0.00036   0.00059   0.02692
   58 O3      .Y       -0.00006   0.00059   0.00059  -0.00036   0.02692
   59 O3      .Z        0.00006   0.00036  -0.00059  -0.00059  -0.02692
   60 O3      .S       -0.05154   0.00106   0.00106   0.00106   0.03234
   61 O3      .X        0.00154   0.00117  -0.00054   0.00117   0.02521
   62 O3      .Y        0.00154   0.00117   0.00117  -0.00054   0.02521
   63 O3      .Z       -0.00154   0.00054  -0.00117  -0.00117  -0.02521
   64 O3      .XX      -0.00757  -0.00009  -0.00014  -0.00009  -0.00173
   65 O3      .YY      -0.00757  -0.00009  -0.00009  -0.00014  -0.00173
   66 O3      .ZZ      -0.00757  -0.00014  -0.00009  -0.00009  -0.00173
   67 O3      .XY       0.00024   0.00004   0.00003   0.00003  -0.00051
   68 O3      .XZ      -0.00024  -0.00003  -0.00003  -0.00004   0.00051
   69 O3      .YZ      -0.00024  -0.00003  -0.00004  -0.00003   0.00051
   70 O4      .S       -0.00014  -0.00014   1.01276  -0.00014  -0.00893
   71 O4      .S       -0.00011  -0.00011  -0.03244  -0.00011   0.02040
   72 O4      .X       -0.00036   0.00059  -0.00006   0.00059   0.02692
   73 O4      .Y       -0.00059   0.00036   0.00006  -0.00059  -0.02692
   74 O4      .Z        0.00059   0.00059  -0.00006  -0.00036   0.02692
   75 O4      .S        0.00106   0.00106  -0.05154   0.00106   0.03234
   76 O4      .X       -0.00054   0.00117   0.00154   0.00117   0.02521
   77 O4      .Y       -0.00117   0.00054  -0.00154  -0.00117  -0.02521
   78 O4      .Z        0.00117   0.00117   0.00154  -0.00054   0.02521
   79 O4      .XX      -0.00014  -0.00009  -0.00757  -0.00009  -0.00173
   80 O4      .YY      -0.00009  -0.00014  -0.00757  -0.00009  -0.00173
   81 O4      .ZZ      -0.00009  -0.00009  -0.00757  -0.00014  -0.00173
   82 O4      .XY      -0.00003  -0.00003  -0.00024  -0.00004   0.00051
   83 O4      .XZ       0.00003   0.00004   0.00024   0.00003  -0.00051
   84 O4      .YZ      -0.00004  -0.00003  -0.00024  -0.00003   0.00051
   85 O5      .S       -0.00014  -0.00014  -0.00014   1.01276  -0.00893
   86 O5      .S       -0.00011  -0.00011  -0.00011  -0.03244   0.02040
   87 O5      .X       -0.00059   0.00036  -0.00059   0.00006  -0.02692
   88 O5      .Y       -0.00036   0.00059   0.00059  -0.00006   0.02692
   89 O5      .Z        0.00059   0.00059  -0.00036  -0.00006   0.02692
   90 O5      .S        0.00106   0.00106   0.00106  -0.05154   0.03234
   91 O5      .X       -0.00117   0.00054  -0.00117  -0.00154  -0.02521
   92 O5      .Y       -0.00054   0.00117   0.00117   0.00154   0.02521
   93 O5      .Z        0.00117   0.00117  -0.00054   0.00154   0.02521
   94 O5      .XX      -0.00009  -0.00014  -0.00009  -0.00757  -0.00173
   95 O5      .YY      -0.00014  -0.00009  -0.00009  -0.00757  -0.00173
   96 O5      .ZZ      -0.00009  -0.00009  -0.00014  -0.00757  -0.00173
   97 O5      .XY      -0.00003  -0.00003  -0.00004  -0.00024   0.00051
   98 O5      .XZ      -0.00004  -0.00003  -0.00003  -0.00024   0.00051
   99 O5      .YZ       0.00003   0.00004   0.00003   0.00024  -0.00051
                          11        12        13        14        15
                           O         O         O         O         O    
     Eigenvalues --   -54.37590 -54.37588 -54.37588 -20.01676 -20.01676
    1 Mn1     .S        0.00000   0.00000   0.00000   0.00278   0.00278
    2 Mn1     .S        0.00000   0.00000   0.00000   0.02424   0.02424
    3 Mn1     .X       -0.00000  -0.32499  -0.00000   0.00851  -0.00851
    4 Mn1     .Y       -0.00000  -0.00000  -0.32499   0.00851   0.00851
    5 Mn1     .Z       -0.32499  -0.00000  -0.00000  -0.00851   0.00851
    6 Mn1     .S       -0.00000  -0.00000  -0.00000   0.10337   0.10337
    7 Mn1     .X       -0.00000   1.08370  -0.00000   0.04058  -0.04058
    8 Mn1     .Y       -0.00000  -0.00000   1.08370   0.04058   0.04058
    9 Mn1     .Z        1.08370  -0.00000  -0.00000  -0.04058   0.04058
   10 Mn1     .S        0.00000  -0.00000  -0.00000   0.18622   0.18622
   11 Mn1     .X       -0.00001  -0.02774  -0.00001   0.16424  -0.16424
   12 Mn1     .Y       -0.00000  -0.00001  -0.02774   0.16424   0.16424
   13 Mn1     .Z       -0.02774  -0.00001  -0.00000  -0.16424   0.16424
   14 Mn1     .S        0.00000  -0.00000  -0.00000   0.06485   0.06485
   15 Mn1     .X       -0.00000   0.00593  -0.00000  -0.01809   0.01809
   16 Mn1     .Y       -0.00000  -0.00000   0.00593  -0.01809  -0.01809
   17 Mn1     .Z        0.00593  -0.00000  -0.00000   0.01809  -0.01809
   18 Mn1     .XX       0.00000   0.00000   0.00000   0.04807   0.04807
   19 Mn1     .YY       0.00000   0.00000   0.00000   0.04807   0.04807
   20 Mn1     .ZZ      -0.00000  -0.00000  -0.00000   0.04807   0.04807
   21 Mn1     .XY       0.01097   0.00000   0.00000  -0.02169   0.02169
   22 Mn1     .XZ       0.00000   0.00000   0.01097   0.02169   0.02169
   23 Mn1     .YZ       0.00000   0.01097   0.00000   0.02169  -0.02169
   24 Mn1     .XX       0.00000   0.00000   0.00000  -0.01909  -0.01909
   25 Mn1     .YY       0.00000   0.00000   0.00000  -0.01909  -0.01909
   26 Mn1     .ZZ      -0.00000  -0.00000  -0.00000  -0.01909  -0.01909
   27 Mn1     .XY       0.01905   0.00000   0.00000  -0.03732   0.03732
   28 Mn1     .XZ       0.00000   0.00000   0.01905   0.03732   0.03732
   29 Mn1     .YZ       0.00000   0.01905   0.00000   0.03732  -0.03732
   30 Mn1     .XXX      0.00000  -0.00002  -0.00000   0.00000  -0.00000
   31 Mn1     .YYY      0.00000   0.00000   0.00010  -0.00001  -0.00001
   32 Mn1     .ZZZ     -0.00010  -0.00000  -0.00000  -0.00001   0.00001
   33 Mn1     .XYY      0.00000  -0.00006  -0.00000   0.00001  -0.00001
   34 Mn1     .XXY      0.00000   0.00000   0.00010  -0.00001  -0.00001
   35 Mn1     .XXZ     -0.00006  -0.00000  -0.00000  -0.00001   0.00001
   36 Mn1     .XZZ      0.00000   0.00007  -0.00000  -0.00001   0.00001
   37 Mn1     .YZZ     -0.00000  -0.00000   0.00007  -0.00001  -0.00001
   38 Mn1     .YYZ     -0.00006  -0.00000  -0.00000  -0.00001   0.00001
   39 Mn1     .XYZ     -0.00000   0.00000   0.00000  -0.00013  -0.00013
   40 O2      .S        0.00645   0.00645   0.00645   0.00002   0.00002
   41 O2      .S       -0.01753  -0.01752  -0.01752  -0.00083  -0.00083
   42 O2      .X        0.02126   0.00958   0.02126  -0.01143   0.01390
   43 O2      .Y        0.02126   0.02126   0.00958  -0.01143  -0.01143
   44 O2      .Z        0.00958   0.02126   0.02126   0.01390  -0.01143
   45 O2      .S       -0.02098  -0.02098  -0.02098  -0.00045  -0.00045
   46 O2      .X        0.02089   0.00987   0.02089  -0.01184   0.01270
   47 O2      .Y        0.02089   0.02089   0.00987  -0.01184  -0.01184
   48 O2      .Z        0.00987   0.02089   0.02089   0.01270  -0.01184
   49 O2      .XX       0.00009   0.00011   0.00009   0.00000  -0.00000
   50 O2      .YY       0.00009   0.00009   0.00011   0.00000   0.00000
   51 O2      .ZZ       0.00011   0.00009   0.00009  -0.00000   0.00000
   52 O2      .XY      -0.00009  -0.00007  -0.00007   0.00002   0.00005
   53 O2      .XZ      -0.00007  -0.00007  -0.00009   0.00005   0.00005
   54 O2      .YZ      -0.00007  -0.00009  -0.00007   0.00005   0.00002
   55 O3      .S        0.00645  -0.00645  -0.00645  -0.13133   0.00002
   56 O3      .S       -0.01753   0.01753   0.01753   0.56403  -0.00083
   57 O3      .X       -0.02126   0.00958   0.02126  -0.10142   0.01143
   58 O3      .Y       -0.02126   0.02126   0.00958  -0.10142  -0.01390
   59 O3      .Z        0.00958  -0.02126  -0.02126   0.10142  -0.01143
   60 O3      .S       -0.02098   0.02098   0.02098   0.67676  -0.00045
   61 O3      .X       -0.02089   0.00987   0.02089  -0.05986   0.01184
   62 O3      .Y       -0.02089   0.02089   0.00987  -0.05986  -0.01270
   63 O3      .Z        0.00987  -0.02089  -0.02089   0.05986  -0.01184
   64 O3      .XX       0.00009  -0.00011  -0.00009  -0.01085   0.00000
   65 O3      .YY       0.00009  -0.00009  -0.00011  -0.01085  -0.00000
   66 O3      .ZZ       0.00011  -0.00009  -0.00009  -0.01085   0.00000
   67 O3      .XY      -0.00009   0.00007   0.00007   0.00119   0.00005
   68 O3      .XZ       0.00007  -0.00007  -0.00009  -0.00119  -0.00002
   69 O3      .YZ       0.00007  -0.00009  -0.00007  -0.00119  -0.00005
   70 O4      .S       -0.00645  -0.00645   0.00645   0.00002   0.00002
   71 O4      .S        0.01753   0.01753  -0.01753  -0.00083  -0.00083
   72 O4      .X        0.02126   0.00958  -0.02126  -0.01390   0.01143
   73 O4      .Y       -0.02126  -0.02126   0.00958  -0.01143  -0.01143
   74 O4      .Z        0.00958   0.02126  -0.02126   0.01143  -0.01390
   75 O4      .S        0.02098   0.02098  -0.02098  -0.00045  -0.00045
   76 O4      .X        0.02089   0.00987  -0.02089  -0.01270   0.01184
   77 O4      .Y       -0.02089  -0.02089   0.00987  -0.01184  -0.01184
   78 O4      .Z        0.00987   0.02089  -0.02089   0.01184  -0.01270
   79 O4      .XX      -0.00009  -0.00011   0.00009  -0.00000   0.00000
   80 O4      .YY      -0.00009  -0.00009   0.00011   0.00000   0.00000
   81 O4      .ZZ      -0.00011  -0.00009   0.00009   0.00000  -0.00000
   82 O4      .XY      -0.00009  -0.00007   0.00007  -0.00005  -0.00002
   83 O4      .XZ       0.00007   0.00007  -0.00009   0.00005   0.00005
   84 O4      .YZ      -0.00007  -0.00009   0.00007  -0.00002  -0.00005
   85 O5      .S       -0.00645   0.00645  -0.00645   0.00002  -0.13133
   86 O5      .S        0.01753  -0.01753   0.01753  -0.00083   0.56403
   87 O5      .X       -0.02126   0.00958  -0.02126  -0.01143   0.10142
   88 O5      .Y        0.02126  -0.02126   0.00958  -0.01390  -0.10142
   89 O5      .Z        0.00958  -0.02126   0.02126   0.01143  -0.10142
   90 O5      .S        0.02098  -0.02098   0.02098  -0.00045   0.67676
   91 O5      .X       -0.02089   0.00987  -0.02089  -0.01184   0.05986
   92 O5      .Y        0.02089  -0.02089   0.00987  -0.01270  -0.05986
   93 O5      .Z        0.00987  -0.02089   0.02089   0.01184  -0.05986
   94 O5      .XX      -0.00009   0.00011  -0.00009   0.00000  -0.01085
   95 O5      .YY      -0.00009   0.00009  -0.00011  -0.00000  -0.01085
   96 O5      .ZZ      -0.00011   0.00009  -0.00009   0.00000  -0.01085
   97 O5      .XY      -0.00009   0.00007  -0.00007  -0.00005  -0.00119
   98 O5      .XZ      -0.00007   0.00007  -0.00009  -0.00002  -0.00119
   99 O5      .YZ       0.00007  -0.00009   0.00007   0.00005   0.00119
                          16        17        18        19        20
                           O         O         O         O         O    
     Eigenvalues --   -20.01676 -20.01676 -10.86641 -10.84644 -10.83024
    1 Mn1     .S        0.00278   0.00278  -0.01000  -0.01018   0.01053
    2 Mn1     .S        0.02424   0.02424  -0.05871  -0.06017   0.06308
    3 Mn1     .X        0.00851  -0.00851  -0.02107  -0.01647  -0.01036
    4 Mn1     .Y       -0.00851  -0.00851   0.02533  -0.01471  -0.01127
    5 Mn1     .Z        0.00851  -0.00851  -0.02000   0.02626  -0.01691
    6 Mn1     .S        0.10337   0.10337  -0.04539  -0.05070   0.06142
    7 Mn1     .X        0.04058  -0.04058   0.02450   0.03133   0.03957
    8 Mn1     .Y       -0.04058  -0.04058  -0.01729   0.03414   0.03818
    9 Mn1     .Z        0.04058  -0.04058   0.02606  -0.01469   0.02855
   10 Mn1     .S        0.18622   0.18622  -0.32720  -0.33699   0.35663
   11 Mn1     .X        0.16424  -0.16424  -0.10950  -0.05681   0.01124
   12 Mn1     .Y       -0.16424  -0.16424   0.16035  -0.03622   0.00073
   13 Mn1     .Z        0.16424  -0.16424  -0.09729   0.17383  -0.06683
   14 Mn1     .S        0.06485   0.06485  -0.15251  -0.15682   0.16546
   15 Mn1     .X       -0.01809   0.01809   0.01411   0.01669   0.02089
   16 Mn1     .Y        0.01809   0.01809  -0.01234   0.01777   0.02023
   17 Mn1     .Z       -0.01809   0.01809   0.01509  -0.01279   0.01806
   18 Mn1     .XX       0.04807   0.04807  -0.04862  -0.06689   0.04753
   19 Mn1     .YY       0.04807   0.04807  -0.04882  -0.06695   0.04690
   20 Mn1     .ZZ       0.04807   0.04807  -0.06218  -0.03346   0.08830
   21 Mn1     .XY       0.02169  -0.02169  -0.16222   0.15581  -0.17645
   22 Mn1     .XZ      -0.02169  -0.02169   0.15182  -0.17201  -0.18261
   23 Mn1     .YZ       0.02169  -0.02169  -0.15734  -0.16738  -0.18571
   24 Mn1     .XX      -0.01909  -0.01909   0.06177   0.05238  -0.07288
   25 Mn1     .YY      -0.01909  -0.01909   0.06163   0.05234  -0.07332
   26 Mn1     .ZZ      -0.01909  -0.01909   0.05224   0.07585  -0.04426
   27 Mn1     .XY       0.03732  -0.03732  -0.07750   0.06885  -0.09087
   28 Mn1     .XZ      -0.03732  -0.03732   0.06626  -0.08852  -0.09918
   29 Mn1     .YZ       0.03732  -0.03732  -0.07318  -0.08392  -0.10208
   30 Mn1     .XXX      0.00000  -0.00000  -0.01206   0.01306  -0.00296
   31 Mn1     .YYY      0.00001   0.00001   0.00191  -0.00459  -0.00562
   32 Mn1     .ZZZ      0.00001  -0.00001   0.00327  -0.00191   0.00438
   33 Mn1     .XYY      0.00001  -0.00001  -0.00950   0.01351  -0.00001
   34 Mn1     .XXY      0.00001   0.00001  -0.00093  -0.00448  -0.00641
   35 Mn1     .XXZ      0.00001  -0.00001   0.00217  -0.00122   0.00293
   36 Mn1     .XZZ     -0.00001   0.00001  -0.01337   0.00802  -0.00793
   37 Mn1     .YZZ      0.00001   0.00001   0.00699  -0.00336  -0.00227
   38 Mn1     .YYZ      0.00001  -0.00001   0.00217  -0.00122   0.00293
   39 Mn1     .XYZ     -0.00013  -0.00013   0.02656   0.02714  -0.02829
   40 O2      .S        0.00002  -0.13133   0.00676   0.00978   0.02574
   41 O2      .S       -0.00083   0.56403  -0.03444  -0.04922  -0.13954
   42 O2      .X       -0.01143   0.10142   0.02603   0.02922   0.27819
   43 O2      .Y        0.01390   0.10142   0.00716   0.02706   0.27934
   44 O2      .Z       -0.01143   0.10142   0.02514   0.01352   0.28456
   45 O2      .S       -0.00045   0.67676  -0.02439  -0.03992  -0.06602
   46 O2      .X       -0.01184   0.05986   0.03765   0.03640   0.16607
   47 O2      .Y        0.01270   0.05986   0.00614   0.03529   0.16670
   48 O2      .Z       -0.01184   0.05986   0.03655   0.00945   0.17330
   49 O2      .XX       0.00000  -0.01085  -0.00661  -0.00543  -0.00421
   50 O2      .YY      -0.00000  -0.01085  -0.00361  -0.00638  -0.00374
   51 O2      .ZZ       0.00000  -0.01085  -0.00661  -0.00305  -0.00427
   52 O2      .XY       0.00005   0.00119  -0.00296  -0.00330  -0.01310
   53 O2      .XZ       0.00002   0.00119  -0.00383  -0.00229  -0.01335
   54 O2      .YZ       0.00005   0.00119  -0.00295  -0.00271  -0.01314
   55 O3      .S        0.00002   0.00002   0.00448  -0.02217  -0.01008
   56 O3      .S       -0.00083  -0.00083  -0.02348   0.12316   0.05107
   57 O3      .X       -0.01390   0.01143  -0.00616   0.27908   0.02210
   58 O3      .Y        0.01143   0.01143  -0.02505   0.27691   0.02321
   59 O3      .Z       -0.01143   0.01390   0.01916  -0.29178  -0.02714
   60 O3      .S       -0.00045  -0.00045  -0.01247   0.04567   0.04080
   61 O3      .X       -0.01270   0.01184  -0.00865   0.17203   0.02920
   62 O3      .Y        0.01184   0.01184  -0.04016   0.17089   0.02981
   63 O3      .Z       -0.01184   0.01270   0.03205  -0.18385  -0.02451
   64 O3      .XX      -0.00000   0.00000  -0.00474   0.00613   0.00584
   65 O3      .YY       0.00000   0.00000  -0.00773   0.00707   0.00537
   66 O3      .ZZ       0.00000  -0.00000  -0.00628   0.00524   0.00442
   67 O3      .XY       0.00005   0.00002  -0.00383   0.01518   0.00290
   68 O3      .XZ      -0.00005  -0.00005   0.00317  -0.01439  -0.00299
   69 O3      .YZ      -0.00002  -0.00005   0.00405  -0.01480  -0.00279
   70 O4      .S       -0.13133   0.00002  -0.02050   0.00454  -0.00705
   71 O4      .S        0.56403  -0.00083   0.11550  -0.02396   0.03647
   72 O4      .X       -0.10142   0.01143   0.28251  -0.01234   0.01411
   73 O4      .Y        0.10142   0.01390  -0.28756   0.01328  -0.02440
   74 O4      .Z       -0.10142   0.01143   0.28064  -0.02576   0.02325
   75 O4      .S        0.67676  -0.00045   0.03612  -0.01243   0.02490
   76 O4      .X       -0.05986   0.01184   0.17720  -0.01563   0.02441
   77 O4      .Y        0.05986   0.01270  -0.18187   0.02537  -0.02531
   78 O4      .Z       -0.05986   0.01184   0.17776  -0.04108   0.03422
   79 O4      .XX      -0.01085   0.00000   0.00666  -0.00537   0.00643
   80 O4      .YY      -0.01085  -0.00000   0.00616  -0.00601   0.00470
   81 O4      .ZZ      -0.01085   0.00000   0.00860  -0.00784   0.00700
   82 O4      .XY      -0.00119  -0.00005  -0.01491   0.00327  -0.00320
   83 O4      .XZ       0.00119   0.00002   0.01598  -0.00411   0.00371
   84 O4      .YZ      -0.00119  -0.00005  -0.01577   0.00390  -0.00347
   85 O5      .S        0.00002   0.00002   0.00396   0.00363  -0.00659
   86 O5      .S       -0.00083  -0.00083  -0.02098  -0.01961   0.03428
   87 O5      .X       -0.01143   0.01390   0.01862   0.01296  -0.02429
   88 O5      .Y        0.01143   0.01143  -0.02368  -0.01202   0.01397
   89 O5      .Z       -0.01390   0.01143  -0.00650  -0.02339   0.02204
   90 O5      .S       -0.00045  -0.00045  -0.00982  -0.00775   0.02255
   91 O5      .X       -0.01184   0.01270   0.03254   0.02752  -0.02647
   92 O5      .Y        0.01184   0.01184  -0.03724  -0.01775   0.02554
   93 O5      .Z       -0.01270   0.01184  -0.01210  -0.03762   0.03252
   94 O5      .XX       0.00000  -0.00000  -0.00648  -0.00725   0.00532
   95 O5      .YY       0.00000   0.00000  -0.00599  -0.00659   0.00705
   96 O5      .ZZ      -0.00000   0.00000  -0.00689  -0.00625   0.00623
   97 O5      .XY      -0.00002  -0.00005   0.00332   0.00432  -0.00373
   98 O5      .XZ      -0.00005  -0.00005   0.00418   0.00369  -0.00337
   99 O5      .YZ       0.00005   0.00002  -0.00397  -0.00389   0.00361
                          21        22        23        24        25
                           O         O         O         O         O    
     Eigenvalues --   -10.77728  -4.07997  -4.07942  -3.98894  -3.94090
    1 Mn1     .S        0.00984  -0.00000  -0.00000   0.00000   0.00000
    2 Mn1     .S        0.05736  -0.00000  -0.00000   0.00000   0.00000
    3 Mn1     .X       -0.02678  -0.01788  -0.01787  -0.00935  -0.00741
    4 Mn1     .Y        0.02174   0.01965   0.01966  -0.00710  -0.00141
    5 Mn1     .Z        0.02239  -0.00520  -0.00515   0.02555   0.02613
    6 Mn1     .S        0.04048   0.00000  -0.00000   0.00000   0.00000
    7 Mn1     .X        0.01586  -0.00862  -0.00860  -0.00337  -0.00021
    8 Mn1     .Y       -0.02435   0.01183   0.01184   0.00042  -0.01497
    9 Mn1     .Z       -0.02317  -0.00875  -0.00893   0.01839   0.01939
   10 Mn1     .S        0.31812  -0.00000  -0.00000   0.00000   0.00000
   11 Mn1     .X       -0.17531  -0.16208  -0.16195  -0.08205  -0.05917
   12 Mn1     .Y        0.11523   0.18371   0.18379  -0.05524  -0.04666
   13 Mn1     .Z        0.12312  -0.06191  -0.06193   0.24599   0.25300
   14 Mn1     .S        0.14851  -0.00000  -0.00000   0.00000   0.00000
   15 Mn1     .X        0.01079  -0.02344  -0.02344  -0.01318  -0.01212
   16 Mn1     .Y       -0.01296   0.02391   0.02391  -0.01191   0.00871
   17 Mn1     .Z       -0.01287  -0.00205  -0.00184   0.02879   0.02901
   18 Mn1     .XX       0.05709   0.16734  -0.19190  -0.09577   0.10156
   19 Mn1     .YY       0.05743  -0.19090   0.16612  -0.09815   0.10285
   20 Mn1     .ZZ       0.03800   0.02356   0.02578   0.19392  -0.20441
   21 Mn1     .XY       0.15130   0.00559   0.00514  -0.06899  -0.06962
   22 Mn1     .XZ       0.15097  -0.05713  -0.05714   0.02595  -0.01712
   23 Mn1     .YZ      -0.14396   0.05616   0.05613   0.03180   0.02767
   24 Mn1     .XX      -0.05264   0.09808  -0.11532  -0.05613   0.06019
   25 Mn1     .YY      -0.05240  -0.11474   0.09735  -0.05759   0.06089
   26 Mn1     .ZZ      -0.06603   0.01666   0.01798   0.11371  -0.12108
   27 Mn1     .XY       0.06760   0.00754   0.00729  -0.05665  -0.05751
   28 Mn1     .XZ       0.06778  -0.04555  -0.04556   0.01817  -0.00599
   29 Mn1     .YZ      -0.05925   0.04360   0.04357   0.02411   0.01976
   30 Mn1     .XXX      0.00354  -0.01554  -0.01557   0.02081   0.02248
   31 Mn1     .YYY      0.00251  -0.00531  -0.00531   0.00203  -0.00018
   32 Mn1     .ZZZ     -0.00241  -0.00114  -0.00111   0.00675   0.00688
   33 Mn1     .XYY      0.00376  -0.01611  -0.01614   0.01742   0.01914
   34 Mn1     .XXY      0.00055  -0.01055  -0.01056  -0.00011   0.00412
   35 Mn1     .XXZ     -0.00158   0.00643  -0.00798   0.00465   0.00474
   36 Mn1     .XZZ      0.00196  -0.00947  -0.00950   0.02100   0.02203
   37 Mn1     .YZZ      0.00562   0.00687   0.00687   0.00567  -0.00872
   38 Mn1     .YYZ     -0.00158   0.00643  -0.00798   0.00465   0.00474
   39 Mn1     .XYZ     -0.02602   0.00000   0.00000  -0.00000  -0.00000
   40 O2      .S       -0.00624  -0.00091  -0.00090   0.00243   0.00417
   41 O2      .S        0.03176   0.00438   0.00432  -0.01172  -0.01889
   42 O2      .X       -0.00428   0.00987  -0.39668  -0.22089   0.01634
   43 O2      .Y       -0.02579  -0.01599   0.38815  -0.22809   0.00921
   44 O2      .Z       -0.02584   0.00289   0.00538   0.45752  -0.00737
   45 O2      .S        0.02203   0.00473   0.00470  -0.01275  -0.01739
   46 O2      .X       -0.00436   0.01777  -0.28666  -0.16185   0.01210
   47 O2      .Y       -0.03707  -0.02226   0.28029  -0.16648   0.00608
   48 O2      .Z       -0.03834   0.00472   0.00654   0.32784  -0.02344
   49 O2      .XX       0.00426  -0.00039   0.01811   0.01170   0.00240
   50 O2      .YY       0.00590   0.00006  -0.01829   0.01062  -0.00084
   51 O2      .ZZ       0.00672  -0.00044  -0.00056  -0.02029   0.00241
   52 O2      .XY       0.00294  -0.00009  -0.00001   0.01232   0.00030
   53 O2      .XZ       0.00331  -0.00058   0.01003  -0.00524   0.00213
   54 O2      .YZ       0.00360   0.00014  -0.01053  -0.00569   0.00075
   55 O3      .S       -0.00355  -0.00188  -0.00187   0.01031   0.00889
   56 O3      .S        0.01883   0.00905   0.00904  -0.04731  -0.04166
   57 O3      .X        0.02463  -0.39019   0.01635  -0.02486  -0.01135
   58 O3      .Y        0.00315   0.39462  -0.00950  -0.02775  -0.01833
   59 O3      .Z       -0.01877  -0.00223   0.00024  -0.00939   0.00500
   60 O3      .S        0.00798   0.00986   0.00989  -0.04521  -0.04222
   61 O3      .X        0.04008  -0.28312   0.02129  -0.00456  -0.00097
   62 O3      .Y        0.00738   0.28384  -0.01873  -0.00600  -0.00696
   63 O3      .Z       -0.03305   0.00084   0.00264  -0.02142  -0.01407
   64 O3      .XX       0.00724  -0.01888  -0.00039   0.00400   0.00152
   65 O3      .YY       0.00559   0.01753  -0.00083   0.00525   0.00470
   66 O3      .ZZ       0.00633  -0.00018  -0.00030   0.00034   0.00169
   67 O3      .XY       0.00398  -0.00050  -0.00043   0.00393   0.00211
   68 O3      .XZ      -0.00386   0.01055  -0.00006  -0.00149  -0.00120
   69 O3      .YZ      -0.00357  -0.01001   0.00066  -0.00205  -0.00256
   70 O4      .S       -0.00392   0.01062   0.01061  -0.00579  -0.00538
   71 O4      .S        0.02057  -0.04911  -0.04907   0.02671   0.02594
   72 O4      .X        0.02559  -0.00134  -0.01969   0.02313  -0.21517
   73 O4      .Y       -0.01962   0.01760  -0.00073  -0.00364   0.23007
   74 O4      .Z        0.00269  -0.02437  -0.02427  -0.00276   0.46413
   75 O4      .S        0.00990  -0.04800  -0.04800   0.02594   0.02822
   76 O4      .X        0.03986   0.01117   0.00269   0.01758  -0.15933
   77 O4      .Y       -0.03432  -0.00462  -0.01306   0.00193   0.17228
   78 O4      .Z        0.00655  -0.00587  -0.00587  -0.02081   0.33052
   79 O4      .XX       0.00648   0.00103   0.00327  -0.00247  -0.01216
   80 O4      .YY       0.00708   0.00306   0.00081   0.00031  -0.01131
   81 O4      .ZZ       0.00536   0.00566   0.00565  -0.00309   0.01897
   82 O4      .XY      -0.00387  -0.00146  -0.00146   0.00048   0.01267
   83 O4      .XZ       0.00356   0.00237   0.00372  -0.00237   0.00463
   84 O4      .YZ      -0.00382  -0.00363  -0.00227   0.00120  -0.00497
   85 O5      .S        0.02001  -0.00783  -0.00784  -0.00695  -0.00768
   86 O5      .S       -0.11352   0.03569   0.03571   0.03231   0.03460
   87 O5      .X        0.28930  -0.01152   0.00682  -0.00413  -0.02044
   88 O5      .Y       -0.28330  -0.00889   0.00942   0.02339   0.03095
   89 O5      .Z       -0.28470   0.03077   0.03087   0.00024  -0.01741
   90 O5      .S       -0.03292   0.03341   0.03341   0.03202   0.03139
   91 O5      .X        0.18563   0.00742   0.01588   0.00470  -0.00284
   92 O5      .Y       -0.18006  -0.01778  -0.00936   0.01473   0.01254
   93 O5      .Z       -0.18112   0.01563   0.01562  -0.01624  -0.02569
   94 O5      .XX      -0.00748  -0.00249  -0.00025  -0.00136  -0.00362
   95 O5      .YY      -0.00806  -0.00005  -0.00229  -0.00409  -0.00464
   96 O5      .ZZ      -0.00791  -0.00491  -0.00492  -0.00092   0.00089
   97 O5      .XY       0.01606   0.00094   0.00094   0.00187   0.00364
   98 O5      .XZ       0.01599   0.00320   0.00185   0.00091   0.00094
   99 O5      .YZ      -0.01624  -0.00175  -0.00312  -0.00204  -0.00138
                          26        27        28        29        30
                           O         O         O         O         V    
     Eigenvalues --    -2.22953  -2.22953  -2.22953  -2.22953   5.38481
    1 Mn1     .S       -0.00000  -0.00000   0.00000   0.00000  -0.00000
    2 Mn1     .S       -0.00000  -0.00000   0.00000  -0.00000  -0.00000
    3 Mn1     .X       -0.00319  -0.00000  -0.00367  -0.00182  -0.04076
    4 Mn1     .Y       -0.00317   0.00318  -0.00184  -0.00185   0.04412
    5 Mn1     .Z        0.00002  -0.00318  -0.00184  -0.00367  -0.00974
    6 Mn1     .S       -0.00000  -0.00000   0.00000  -0.00000   0.00000
    7 Mn1     .X       -0.02667  -0.00000  -0.03070  -0.01521  -0.07335
    8 Mn1     .Y       -0.02650   0.02659  -0.01535  -0.01549   0.07916
    9 Mn1     .Z        0.00016  -0.02659  -0.01535  -0.03070  -0.01663
   10 Mn1     .S       -0.00000  -0.00000   0.00000  -0.00000  -0.00000
   11 Mn1     .X       -0.08882  -0.00000  -0.10225  -0.05065  -0.49760
   12 Mn1     .Y       -0.08827   0.08855  -0.05112  -0.05160   0.53796
   13 Mn1     .Z        0.00055  -0.08855  -0.05112  -0.10225  -0.11658
   14 Mn1     .S       -0.00000  -0.00000   0.00000  -0.00000  -0.00000
   15 Mn1     .X        0.01006   0.00000   0.01158   0.00574  -0.02305
   16 Mn1     .Y        0.01000  -0.01003   0.00579   0.00584   0.02408
   17 Mn1     .Z       -0.00006   0.01003   0.00579   0.01158  -0.00363
   18 Mn1     .XX       0.02507  -0.00000  -0.02886   0.01430  -0.41858
   19 Mn1     .YY      -0.02492  -0.02500   0.01443   0.01456   0.36924
   20 Mn1     .ZZ      -0.00015   0.02500   0.01443  -0.02886   0.04934
   21 Mn1     .XY      -0.00007   0.01148   0.00663   0.01326   0.00963
   22 Mn1     .XZ       0.01145  -0.01148   0.00663   0.00669  -0.13316
   23 Mn1     .YZ       0.01152   0.00000   0.01326   0.00657   0.13140
   24 Mn1     .XX       0.03937  -0.00000  -0.04533   0.02245  -0.30407
   25 Mn1     .YY      -0.03913  -0.03925   0.02266   0.02287   0.26937
   26 Mn1     .ZZ      -0.00024   0.03925   0.02266  -0.04532   0.03470
   27 Mn1     .XY      -0.00013   0.02158   0.01246   0.02492   0.01357
   28 Mn1     .XZ       0.02152  -0.02158   0.01246   0.01258  -0.13303
   29 Mn1     .YZ       0.02165   0.00000   0.02492   0.01235   0.12952
   30 Mn1     .XXX     -0.00176   0.00282  -0.00042   0.00224  -0.03354
   31 Mn1     .YYY      0.00146  -0.00146   0.00085   0.00085  -0.01338
   32 Mn1     .ZZZ      0.00001  -0.00146  -0.00085  -0.00169  -0.00210
   33 Mn1     .XYY     -0.00223   0.00252  -0.00113   0.00163  -0.03569
   34 Mn1     .XXY      0.00210  -0.00084   0.00194  -0.00023  -0.02480
   35 Mn1     .XXZ     -0.00251  -0.00224   0.00162  -0.00115  -0.02079
   36 Mn1     .XZZ     -0.00026   0.00252   0.00113   0.00275  -0.01862
   37 Mn1     .YZZ     -0.00029  -0.00224  -0.00162   0.00275   0.01369
   38 Mn1     .YYZ     -0.00251  -0.00224   0.00162  -0.00115  -0.02079
   39 Mn1     .XYZ      0.00000   0.00000   0.00000   0.00000   0.00000
   40 O2      .S       -0.00195  -0.00000  -0.00226  -0.00226  -0.00171
   41 O2      .S        0.01172   0.00000   0.01358   0.01358   0.00822
   42 O2      .X        0.00534   0.00000   0.00017   0.00174   0.28211
   43 O2      .Y        0.00014  -0.00752   0.00178   0.00182  -0.29196
   44 O2      .Z       -0.00226   0.00752   0.00178   0.00017   0.00387
   45 O2      .S        0.01781   0.00000   0.02063   0.02063   0.00894
   46 O2      .X        0.00260   0.00000   0.00198   0.00081   0.23007
   47 O2      .Y        0.00171  -0.00373   0.00083   0.00085  -0.23740
   48 O2      .Z       -0.00117   0.00373   0.00083   0.00198   0.00768
   49 O2      .XX      -0.00068  -0.00000  -0.00155  -0.00076  -0.01448
   50 O2      .YY      -0.00134   0.00005  -0.00076  -0.00076   0.01383
   51 O2      .ZZ      -0.00063  -0.00005  -0.00076  -0.00155  -0.00077
   52 O2      .XY      -0.00050  -0.00017  -0.00067   0.00002  -0.00019
   53 O2      .XZ       0.00001   0.00017  -0.00067  -0.00068  -0.00805
   54 O2      .YZ      -0.00067   0.00000   0.00002  -0.00067   0.00726
   55 O3      .S        0.00196  -0.00196   0.00113   0.00000  -0.00354
   56 O3      .S       -0.01180   0.01176  -0.00679  -0.00000   0.01703
   57 O3      .X        0.00014   0.00222   0.00741   0.27448   0.04723
   58 O3      .Y        0.00528  -0.00014   0.00008   0.27960  -0.03417
   59 O3      .Z        0.00218   0.00531   0.00562   0.55408   0.00046
   60 O3      .S       -0.01792   0.01787  -0.01032  -0.00000   0.01856
   61 O3      .X        0.00172   0.00115   0.00365   0.20650   0.04832
   62 O3      .Y        0.00257  -0.00171   0.00099   0.21035  -0.04342
   63 O3      .Z        0.00113   0.00259   0.00282   0.41685   0.00499
   64 O3      .XX       0.00135  -0.00063   0.00042   0.01265  -0.00063
   65 O3      .YY       0.00068  -0.00134   0.00078   0.01288  -0.00166
   66 O3      .ZZ       0.00063  -0.00068   0.00034  -0.02553  -0.00055
   67 O3      .XY       0.00050  -0.00067   0.00019   0.01361  -0.00081
   68 O3      .XZ      -0.00067  -0.00001   0.00001   0.00687   0.00026
   69 O3      .YZ       0.00001   0.00050  -0.00048   0.00674   0.00086
   70 O4      .S        0.00000   0.00196   0.00113   0.00112   0.02433
   71 O4      .S       -0.00000  -0.01176  -0.00679  -0.00673  -0.11809
   72 O4      .X        0.48132  -0.00222   0.00741   0.00008  -0.02593
   73 O4      .Y        0.47837  -0.00531   0.00562   0.00565  -0.00171
   74 O4      .Z       -0.00296   0.00014   0.00008   0.00742  -0.05089
   75 O4      .S       -0.00000  -0.01787  -0.01032  -0.01022  -0.12936
   76 O4      .X        0.36211  -0.00115   0.00365   0.00098   0.01062
   77 O4      .Y        0.35989  -0.00259   0.00282   0.00283  -0.02864
   78 O4      .Z       -0.00223   0.00171   0.00099   0.00365  -0.01355
   79 O4      .XX       0.02218   0.00063   0.00042   0.00077   0.00768
   80 O4      .YY      -0.02204   0.00068   0.00034   0.00033   0.00451
   81 O4      .ZZ      -0.00014   0.00134   0.00078   0.00041   0.01212
   82 O4      .XY      -0.00007   0.00001   0.00001  -0.00048  -0.00388
   83 O4      .XZ       0.01175   0.00067   0.00019   0.00019   0.00703
   84 O4      .YZ       0.01182  -0.00050  -0.00048   0.00001  -0.00581
   85 O5      .S       -0.00001   0.00000  -0.00000   0.00114  -0.01908
   86 O5      .S        0.00007  -0.00000   0.00000  -0.00685   0.09284
   87 O5      .X        0.00753   0.00000   0.55408   0.00560   0.01329
   88 O5      .Y        0.00752  -0.47985   0.27704   0.00008   0.00653
   89 O5      .Z       -0.00000   0.47985   0.27704   0.00740   0.06327
   90 O5      .S        0.00011  -0.00000   0.00000  -0.01041   0.10186
   91 O5      .X        0.00374   0.00000   0.41686   0.00280   0.03403
   92 O5      .Y        0.00373  -0.36101   0.20843   0.00100  -0.02324
   93 O5      .Z       -0.00001   0.36101   0.20843   0.00364   0.03199
   94 O5      .XX      -0.00005  -0.00000  -0.02553   0.00034  -0.00346
   95 O5      .YY       0.00004  -0.02211   0.01277   0.00078  -0.00584
   96 O5      .ZZ      -0.00001   0.02211   0.01277   0.00042  -0.01073
   97 O5      .XY      -0.00000   0.01178   0.00680  -0.00049   0.00292
   98 O5      .XZ      -0.00017  -0.01178   0.00680   0.00001   0.00501
   99 O5      .YZ      -0.00017   0.00000   0.01361   0.00019  -0.00589
                          31        32        33        34        35
                           V         V         V         V         V    
     Eigenvalues --     5.39090   5.43084   5.90345   7.98884   9.73230
    1 Mn1     .S       -0.00000   0.00000   0.00000   0.01365  -0.01391
    2 Mn1     .S       -0.00000   0.00000   0.00000   0.11416  -0.11572
    3 Mn1     .X       -0.04079  -0.01828  -0.02207   0.00066  -0.00815
    4 Mn1     .Y        0.04411   0.00127  -0.01778  -0.00055  -0.00568
    5 Mn1     .Z       -0.00992   0.05856   0.05751  -0.00805   0.02188
    6 Mn1     .S       -0.00000   0.00000   0.00000   0.42229  -0.42371
    7 Mn1     .X       -0.07339  -0.03338  -0.03955  -0.07555  -0.08874
    8 Mn1     .Y        0.07914   0.00460  -0.03282  -0.07741  -0.08481
    9 Mn1     .Z       -0.01699   0.10413   0.10231  -0.09021   0.11206
   10 Mn1     .S       -0.00000   0.00000   0.00000   0.77060  -0.77939
   11 Mn1     .X       -0.49787  -0.22437  -0.26904  -0.16993  -0.27102
   12 Mn1     .Y        0.53783   0.02143  -0.21910  -0.18391  -0.24215
   13 Mn1     .Z       -0.11888   0.71163   0.69899  -0.27370   0.43505
   14 Mn1     .S       -0.00000   0.00000   0.00000   0.33897  -0.34306
   15 Mn1     .X       -0.02306  -0.01103  -0.01309   0.05183   0.04830
   16 Mn1     .Y        0.02408   0.00419  -0.01041   0.05095   0.04982
   17 Mn1     .Z       -0.00377   0.03106   0.03068   0.04806  -0.04283
   18 Mn1     .XX       0.37189   0.22780  -0.21690   0.18455  -0.21941
   19 Mn1     .YY      -0.41636   0.23089  -0.22210   0.18371  -0.21949
   20 Mn1     .ZZ       0.04447  -0.45869   0.43900   0.23874  -0.17254
   21 Mn1     .XY       0.01079  -0.16368  -0.16267  -0.30427   0.29060
   22 Mn1     .XZ      -0.13315  -0.04770   0.06489  -0.31247  -0.31331
   23 Mn1     .YZ       0.13145   0.06788   0.07598  -0.31658  -0.30682
   24 Mn1     .XX       0.27129   0.16567  -0.15800  -0.14176   0.11989
   25 Mn1     .YY      -0.30245   0.16794  -0.16176  -0.14234   0.11983
   26 Mn1     .ZZ       0.03115  -0.33360   0.31976  -0.10371   0.15279
   27 Mn1     .XY       0.01461  -0.16594  -0.16448  -0.24122   0.22118
   28 Mn1     .XZ      -0.13301  -0.03911   0.06280  -0.25227  -0.24875
   29 Mn1     .YZ       0.12958   0.06529   0.07381  -0.25612  -0.24231
   30 Mn1     .XXX     -0.03349   0.04860   0.04543  -0.00269   0.01960
   31 Mn1     .YYY     -0.01338  -0.00230   0.00589  -0.01246  -0.01160
   32 Mn1     .ZZZ     -0.00218   0.01719   0.01696   0.01081  -0.00784
   33 Mn1     .XYY     -0.03565   0.04074   0.03747   0.00333   0.02240
   34 Mn1     .XXY     -0.02480   0.00848  -0.00072  -0.01353  -0.01147
   35 Mn1     .XXZ      0.01783   0.01180   0.01165   0.00723  -0.00518
   36 Mn1     .XZZ     -0.01857   0.04892   0.04698  -0.01389   0.00778
   37 Mn1     .YZZ      0.01369  -0.02314   0.01725  -0.00637  -0.00818
   38 Mn1     .YYZ      0.01783   0.01180   0.01165   0.00723  -0.00518
   39 Mn1     .XYZ      0.00000  -0.00000  -0.00000  -0.04537   0.04608
   40 O2      .S       -0.00176   0.01054   0.00472  -0.06054   0.01181
   41 O2      .S        0.00847  -0.05128  -0.02274   0.32366  -0.07368
   42 O2      .X        0.03490   0.04378   0.17188  -0.31577   0.04944
   43 O2      .Y       -0.04650   0.01764   0.16911  -0.31423   0.04641
   44 O2      .Z        0.00550  -0.03040  -0.32443  -0.30730   0.00956
   45 O2      .S        0.00922  -0.05629  -0.02474   0.25074  -0.03530
   46 O2      .X        0.04162   0.02936   0.13507  -0.26077   0.04316
   47 O2      .Y       -0.05014   0.00952   0.13446  -0.25993   0.04161
   48 O2      .Z        0.00901  -0.05319  -0.27049  -0.25116   0.01054
   49 O2      .XX      -0.00084   0.00541  -0.00563   0.02488  -0.00949
   50 O2      .YY       0.00020   0.00013  -0.00826   0.02550  -0.01083
   51 O2      .ZZ      -0.00086   0.00559   0.01784   0.02479  -0.01044
   52 O2      .XY      -0.00017   0.00168  -0.00800   0.02427  -0.00450
   53 O2      .XZ      -0.00073   0.00411   0.00593   0.02394  -0.00482
   54 O2      .YZ      -0.00013   0.00189   0.00476   0.02421  -0.00541
   55 O3      .S       -0.00357   0.01964   0.02489  -0.01156   0.06701
   56 O3      .S        0.01720  -0.09512  -0.12093   0.07241  -0.35442
   57 O3      .X        0.29445  -0.02179  -0.04434   0.03756  -0.31846
   58 O3      .Y       -0.27965  -0.04775  -0.04976   0.03904  -0.32149
   59 O3      .Z        0.00213  -0.00648  -0.01860  -0.02701   0.30065
   60 O3      .S        0.01875  -0.10396  -0.13253   0.03428  -0.28638
   61 O3      .X        0.23679   0.00035  -0.00704   0.03122  -0.25731
   62 O3      .Y       -0.23067  -0.01947  -0.00974   0.03203  -0.25890
   63 O3      .Z        0.00635  -0.03507  -0.04604  -0.02997   0.24074
   64 O3      .XX       0.01301   0.00467   0.00943   0.00958  -0.02295
   65 O3      .YY      -0.01528   0.00985   0.01185   0.00896  -0.02164
   66 O3      .ZZ      -0.00064   0.00419   0.00414   0.01184  -0.02421
   67 O3      .XY      -0.00079   0.00518   0.00758   0.00373  -0.02187
   68 O3      .XZ      -0.00706  -0.00274  -0.00443  -0.00553   0.02298
   69 O3      .YZ       0.00824  -0.00493  -0.00550  -0.00526   0.02240
   70 O4      .S        0.02437  -0.01043  -0.01370  -0.00753   0.00446
   71 O4      .S       -0.11832   0.05024   0.06654   0.05300  -0.03827
   72 O4      .X       -0.00221   0.18288   0.05700   0.02695  -0.00790
   73 O4      .Y        0.02208  -0.16523  -0.00687  -0.02336   0.02709
   74 O4      .Z       -0.05091  -0.31152  -0.02151   0.03909  -0.04458
   75 O4      .S       -0.12961   0.05465   0.07294   0.01315   0.00323
   76 O4      .X        0.02508   0.13989   0.04003   0.02485  -0.01920
   77 O4      .Y       -0.01423  -0.12317   0.00601  -0.03102   0.02770
   78 O4      .Z       -0.01346  -0.26518  -0.04816   0.03788  -0.04972
   79 O4      .XX       0.00493   0.00474  -0.00555   0.01036  -0.01369
   80 O4      .YY       0.00730   0.00692  -0.00116   0.01221  -0.01031
   81 O4      .ZZ       0.01214  -0.02039  -0.00692   0.01113  -0.01288
   82 O4      .XY      -0.00390  -0.00733   0.00203  -0.00581   0.00619
   83 O4      .XZ       0.00600  -0.00712  -0.00457   0.00481  -0.00737
   84 O4      .YZ      -0.00687   0.00617   0.00277  -0.00617   0.00534
   85 O5      .S       -0.01904  -0.01975  -0.01591  -0.00692   0.00319
   86 O5      .S        0.09265   0.09617   0.07713   0.05008  -0.03217
   87 O5      .X       -0.01039  -0.03571  -0.00782  -0.02322   0.02665
   88 O5      .Y       -0.01722   0.05588   0.05763   0.02676  -0.00747
   89 O5      .Z        0.06326  -0.03411  -0.01574   0.03749  -0.04127
   90 O5      .S        0.10164   0.10560   0.08433   0.01002   0.00980
   91 O5      .X        0.01962  -0.00370   0.01133  -0.03257   0.03071
   92 O5      .Y       -0.03763   0.02241   0.03457   0.02636  -0.02218
   93 O5      .Z        0.03210  -0.05425  -0.03931   0.03563  -0.04487
   94 O5      .XX      -0.00621  -0.00869  -0.00436   0.01304  -0.01205
   95 O5      .YY      -0.00306  -0.01066  -0.00867   0.01119  -0.01540
   96 O5      .ZZ      -0.01071  -0.00176  -0.00270   0.01010  -0.01065
   97 O5      .XY       0.00291   0.00701   0.00473  -0.00651   0.00766
   98 O5      .XZ       0.00604   0.00335   0.00218  -0.00604   0.00504
   99 O5      .YZ      -0.00483  -0.00420  -0.00394   0.00468  -0.00706
                          36        37        38        39        40
                           V         V         V         V         V    
     Eigenvalues --    10.63094  11.20264  13.55440  12.91906  12.92015
    1 Mn1     .S       -0.01404   0.01415   0.00000   0.00000   0.00000
    2 Mn1     .S       -0.11647   0.11714   0.00000   0.00000   0.00000
    3 Mn1     .X       -0.01512  -0.02406   0.07289  -0.04863   0.00000
    4 Mn1     .Y        0.02126   0.01662   0.07340  -0.00000   0.00000
    5 Mn1     .Z       -0.01358   0.01757   0.03609  -0.00000  -0.04863
    6 Mn1     .S       -0.42431   0.42481   0.00000   0.00000   0.00000
    7 Mn1     .X       -0.09978  -0.11394   0.14012  -0.49035   0.00001
    8 Mn1     .Y        0.11015   0.10141   0.14111   0.00001   0.00001
    9 Mn1     .Z       -0.09753   0.10314   0.06937   0.00000  -0.49036
   10 Mn1     .S       -0.78355   0.78728   0.00000  -0.00000   0.00000
   11 Mn1     .X       -0.35245  -0.45683   0.90797  -1.48327   0.00003
   12 Mn1     .Y        0.42565   0.36817   0.91440  -0.00000   0.00002
   13 Mn1     .Z       -0.33488   0.37981   0.44954   0.00000  -1.48326
   14 Mn1     .S       -0.34500   0.34674   0.00000  -0.00000   0.00000
   15 Mn1     .X        0.04567   0.04171  -0.00057   1.61870  -0.00003
   16 Mn1     .Y       -0.04312  -0.04491  -0.00058   0.00001  -0.00002
   17 Mn1     .Z        0.04707  -0.04478  -0.00028  -0.00000   1.61870
   18 Mn1     .XX      -0.19789   0.21432  -0.04118  -0.00000  -0.00000
   19 Mn1     .YY      -0.19818   0.21482  -0.04272  -0.00000  -0.00000
   20 Mn1     .ZZ      -0.21742   0.18616   0.08390   0.00000   0.00000
   21 Mn1     .XY      -0.30702   0.29801  -0.01880  -0.00003  -0.09892
   22 Mn1     .XZ       0.29205   0.29753  -0.03824  -0.00004  -0.00000
   23 Mn1     .YZ      -0.29999  -0.28719  -0.03797  -0.09887  -0.00003
   24 Mn1     .XX       0.13622  -0.12577  -0.02891   0.00000   0.00000
   25 Mn1     .YY       0.13602  -0.12542  -0.02999   0.00000   0.00000
   26 Mn1     .ZZ       0.12251  -0.14555   0.05890  -0.00000  -0.00000
   27 Mn1     .XY      -0.23849   0.22883  -0.00071   0.00005  -0.05036
   28 Mn1     .XZ       0.22230   0.22910  -0.00144   0.00007   0.00000
   29 Mn1     .YZ      -0.23226  -0.21650  -0.00143  -0.05034   0.00005
   30 Mn1     .XXX     -0.01605   0.00655   0.00342   0.01084   0.00014
   31 Mn1     .YYY      0.00800   0.00904  -0.00390   0.00005  -0.00000
   32 Mn1     .ZZZ      0.00996  -0.00890   0.00192  -0.00002   0.04403
   33 Mn1     .XYY     -0.01015   0.00913   0.00479   0.02909   0.00012
   34 Mn1     .XXY      0.00394   0.00619   0.00047   0.00008  -0.00000
   35 Mn1     .XXZ      0.00664  -0.00591   0.00125  -0.00002   0.02954
   36 Mn1     .XZZ     -0.02277  -0.00069  -0.00040  -0.02909   0.00013
   37 Mn1     .YZZ      0.01359   0.01188  -0.01140  -0.00003  -0.00001
   38 Mn1     .YYZ      0.00664  -0.00591   0.00125  -0.00002   0.02954
   39 Mn1     .XYZ      0.04641  -0.04672   0.00000   0.00000  -0.00000
   40 O2      .S        0.00779  -0.00724   0.05209   0.00374   0.00375
   41 O2      .S       -0.05435   0.05172  -0.25543  -0.01179  -0.01177
   42 O2      .X        0.04610   0.00340   0.05554   0.08246   0.02576
   43 O2      .Y        0.00075  -0.04684   0.05498   0.02579   0.02575
   44 O2      .Z        0.04482  -0.04691   0.09283   0.02579   0.08243
   45 O2      .S       -0.01408   0.01113  -0.28196   0.09992   0.09987
   46 O2      .X        0.04619  -0.00363   0.00451  -0.24592  -0.22198
   47 O2      .Y        0.00608  -0.04656   0.00506  -0.22199  -0.22197
   48 O2      .Z        0.04460  -0.04844   0.04551  -0.22199  -0.24595
   49 O2      .XX      -0.01144   0.01267   0.01085   0.03466   0.04454
   50 O2      .YY      -0.01148   0.01066   0.00991   0.04451   0.04453
   51 O2      .ZZ      -0.01144   0.01188   0.00986   0.04450   0.03473
   52 O2      .XY      -0.00589   0.00601   0.00662   0.03484   0.04325
   53 O2      .XZ      -0.00539   0.00655   0.00672   0.03484   0.03488
   54 O2      .YZ      -0.00588   0.00518   0.00630   0.04325   0.03488
   55 O3      .S        0.00452  -0.00328  -0.03147  -0.00374   0.00374
   56 O3      .S       -0.03857   0.03264   0.15435   0.01178  -0.01176
   57 O3      .X        0.00068   0.04513  -0.00128   0.08245  -0.02575
   58 O3      .Y       -0.04469  -0.00508  -0.00194   0.02579  -0.02575
   59 O3      .Z        0.03621  -0.03648  -0.12609  -0.02578   0.08242
   60 O3      .S        0.00307  -0.00961   0.17038  -0.09993   0.09988
   61 O3      .X       -0.00969   0.05101  -0.03251  -0.24593   0.22200
   62 O3      .Y       -0.04980   0.00809  -0.03202  -0.22200   0.22201
   63 O3      .Z        0.03814  -0.04064  -0.09781   0.22200  -0.24594
   64 O3      .XX      -0.01311   0.01264  -0.00661  -0.03466   0.04454
   65 O3      .YY      -0.01305   0.01463  -0.00566  -0.04451   0.04455
   66 O3      .ZZ      -0.01096   0.01130  -0.00623  -0.04451   0.03471
   67 O3      .XY      -0.00715   0.00754  -0.00368  -0.03484   0.04326
   68 O3      .XZ       0.00620  -0.00557   0.00430   0.03485  -0.03488
   69 O3      .YZ       0.00570  -0.00693   0.00388   0.04326  -0.03488
   70 O4      .S        0.07034  -0.00381  -0.01016  -0.00374  -0.00375
   71 O4      .S       -0.37025   0.03521   0.04982   0.01177   0.01177
   72 O4      .X       -0.31570   0.04654  -0.05717   0.08245   0.02576
   73 O4      .Y        0.30844  -0.03773  -0.10811  -0.02578  -0.02576
   74 O4      .Z       -0.31839  -0.00574  -0.01127   0.02578   0.08243
   75 O4      .S       -0.30470  -0.00678   0.05499  -0.09993  -0.09987
   76 O4      .X       -0.25231   0.05068  -0.06694  -0.24591  -0.22198
   77 O4      .Y        0.24559  -0.04251  -0.10115   0.22201   0.22197
   78 O4      .Z       -0.25151   0.00687  -0.02347  -0.22200  -0.24596
   79 O4      .XX      -0.02253   0.01152  -0.00071  -0.03465  -0.04454
   80 O4      .YY      -0.02325   0.01240  -0.00254  -0.04452  -0.04453
   81 O4      .ZZ      -0.01973   0.01429  -0.00272  -0.04452  -0.03473
   82 O4      .XY       0.02246  -0.00559   0.00103   0.03484   0.04325
   83 O4      .XZ      -0.02091   0.00692  -0.00075  -0.03484  -0.03489
   84 O4      .YZ       0.02123  -0.00730   0.00205   0.04326   0.03488
   85 O5      .S        0.00377  -0.07201  -0.01045   0.00374  -0.00374
   86 O5      .S       -0.03497   0.37811   0.05126  -0.01176   0.01176
   87 O5      .X        0.03544  -0.30776  -0.10837   0.08244  -0.02575
   88 O5      .Y       -0.04272   0.31661  -0.05700  -0.02577   0.02575
   89 O5      .Z        0.00020   0.31454  -0.01056  -0.02577   0.08242
   90 O5      .S        0.00689   0.31417   0.05659   0.09994  -0.09988
   91 O5      .X        0.03884  -0.24209  -0.09999  -0.24591   0.22200
   92 O5      .Y       -0.04560   0.25031  -0.06819   0.22201  -0.22201
   93 O5      .Z       -0.01467   0.24875  -0.02074   0.22201  -0.24594
   94 O5      .XX      -0.01125   0.02162  -0.00353   0.03465  -0.04454
   95 O5      .YY      -0.01054   0.02076  -0.00171   0.04452  -0.04455
   96 O5      .ZZ      -0.01619   0.02098  -0.00091   0.04452  -0.03471
   97 O5      .XY       0.00465  -0.02097   0.00190  -0.03484   0.04326
   98 O5      .XZ       0.00766  -0.02107   0.00167  -0.03484   0.03488
   99 O5      .YZ      -0.00736   0.02070  -0.00037   0.04327  -0.03488
                          41        42        43        44        45
                           V         V         V         V         V    
     Eigenvalues --    12.92030  17.79694  32.91524  32.91524  32.91524
    1 Mn1     .S        0.00000   0.01928  -0.00000   0.00000  -0.00000
    2 Mn1     .S        0.00000   0.12529   0.00000  -0.00000   0.00000
    3 Mn1     .X        0.00000   0.00000  -0.01107  -0.01808  -0.01842
    4 Mn1     .Y       -0.04863   0.00000   0.01012  -0.01863  -0.01830
    5 Mn1     .Z       -0.00000  -0.00000  -0.02120   0.00055   0.00012
    6 Mn1     .S        0.00000   1.57309   0.00000  -0.00000   0.00000
    7 Mn1     .X        0.00002   0.00000  -0.07037  -0.11489  -0.11704
    8 Mn1     .Y       -0.49036   0.00000   0.06431  -0.11838  -0.11631
    9 Mn1     .Z       -0.00000   0.00000  -0.13468   0.00349   0.00073
   10 Mn1     .S       -0.00000  -0.49310   0.00000  -0.00000   0.00000
   11 Mn1     .X        0.00006   0.00000  -0.24930  -0.40704  -0.41466
   12 Mn1     .Y       -1.48325   0.00000   0.22786  -0.41942  -0.41206
   13 Mn1     .Z       -0.00001  -0.00000  -0.47716   0.01238   0.00260
   14 Mn1     .S       -0.00000  -2.01805   0.00000  -0.00000   0.00000
   15 Mn1     .X       -0.00006  -0.00000   0.02634   0.04301   0.04381
   16 Mn1     .Y        1.61869  -0.00000  -0.02407   0.04431   0.04354
   17 Mn1     .Z        0.00001  -0.00000   0.05042  -0.00131  -0.00027
   18 Mn1     .XX       0.00000   0.75200   0.00788   0.01286  -0.01310
   19 Mn1     .YY       0.00000   0.75200   0.00720  -0.01325   0.01302
   20 Mn1     .ZZ      -0.00000   0.75200  -0.01508   0.00039   0.00008
   21 Mn1     .XY      -0.00000   0.00000  -0.00041   0.00001   0.00000
   22 Mn1     .XZ      -0.09893   0.00000   0.00019  -0.00036  -0.00035
   23 Mn1     .YZ      -0.00004   0.00000  -0.00021  -0.00035  -0.00035
   24 Mn1     .XX       0.00000  -0.07580  -0.06656  -0.10867   0.11070
   25 Mn1     .YY       0.00000  -0.07580  -0.06083   0.11197  -0.11001
   26 Mn1     .ZZ      -0.00000  -0.07580   0.12739  -0.00330  -0.00069
   27 Mn1     .XY       0.00000   0.00000   0.03840  -0.00100  -0.00021
   28 Mn1     .XZ      -0.05035  -0.00000  -0.01834   0.03375   0.03316
   29 Mn1     .YZ       0.00007  -0.00000   0.02006   0.03275   0.03337
   30 Mn1     .XXX     -0.00007  -0.00000  -0.01153   0.01015   0.00978
   31 Mn1     .YYY     -0.04406   0.00000   0.00503  -0.00926  -0.00910
   32 Mn1     .ZZZ     -0.00002  -0.00000   0.01053  -0.00027  -0.00006
   33 Mn1     .XYY     -0.00006  -0.00000  -0.00785   0.01310   0.01284
   34 Mn1     .XXY     -0.04435   0.00000  -0.00089  -0.01255  -0.01257
   35 Mn1     .XXZ     -0.00001  -0.00000   0.00672  -0.01371   0.01350
   36 Mn1     .XZZ     -0.00006   0.00000  -0.01523   0.00104   0.00056
   37 Mn1     .YZZ     -0.02954   0.00000   0.01527   0.00025   0.00073
   38 Mn1     .YYZ     -0.00001  -0.00000   0.00672  -0.01371   0.01350
   39 Mn1     .XYZ      0.00000   0.19820  -0.00000   0.00000  -0.00000
   40 O2      .S        0.00375  -0.08455  -0.00924  -0.01509  -0.01528
   41 O2      .S       -0.01178  -0.22566   0.05905   0.09642   0.09761
   42 O2      .X        0.02576  -0.00741  -0.00004  -0.00007  -0.01260
   43 O2      .Y        0.08243  -0.00741  -0.01411  -0.01232  -0.00007
   44 O2      .Z        0.02576  -0.00741  -0.00456  -0.01816  -0.01825
   45 O2      .S        0.09986   1.20207   0.05723   0.09344   0.09459
   46 O2      .X       -0.22197  -0.00427  -0.00584  -0.00953   0.02408
   47 O2      .Y       -0.24595  -0.00427  -0.06451   0.02541  -0.00965
   48 O2      .Z       -0.22198  -0.00427   0.05195  -0.04592  -0.04485
   49 O2      .XX       0.04454  -0.24893   0.00303   0.00495   0.00090
   50 O2      .YY       0.03472  -0.24893   0.00064   0.00089   0.00502
   51 O2      .ZZ       0.04454  -0.24893   0.00050   0.00097   0.00098
   52 O2      .XY       0.03488  -0.00085   0.00284   0.00265   0.00271
   53 O2      .XZ       0.04325  -0.00085   0.00107   0.00374  -0.00032
   54 O2      .YZ       0.03488  -0.00085  -0.00019  -0.00031   0.00376
   55 O3      .S       -0.00375  -0.08455  -0.00845   0.01555   0.01537
   56 O3      .S        0.01177  -0.22566   0.05398  -0.09935  -0.09823
   57 O3      .X        0.02576   0.00741   0.01345  -0.01303  -0.00007
   58 O3      .Y        0.08243   0.00741   0.00004  -0.00007  -0.01275
   59 O3      .Z       -0.02575  -0.00741  -0.00361   0.01838   0.01830
   60 O3      .S       -0.09986   1.20207   0.05231  -0.09628  -0.09519
   61 O3      .X       -0.22197   0.00427   0.06574   0.02203  -0.00971
   62 O3      .Y       -0.24594   0.00427   0.00533  -0.00982   0.02337
   63 O3      .Z        0.22197  -0.00427   0.05426   0.04317   0.04427
   64 O3      .XX      -0.04454  -0.24893   0.00059  -0.00092  -0.00505
   65 O3      .YY      -0.03473  -0.24893   0.00277  -0.00510  -0.00091
   66 O3      .ZZ      -0.04454  -0.24893   0.00045  -0.00099  -0.00099
   67 O3      .XY      -0.03488  -0.00085   0.00270  -0.00280  -0.00274
   68 O3      .XZ       0.04325   0.00085   0.00017  -0.00032   0.00377
   69 O3      .YZ       0.03488   0.00085  -0.00088   0.00379  -0.00032
   70 O4      .S        0.00375  -0.08455   0.01769  -0.00046   0.00000
   71 O4      .S       -0.01176  -0.22566  -0.11303   0.00293  -0.00000
   72 O4      .X       -0.02575   0.00741  -0.01772   0.00606  -0.65139
   73 O4      .Y        0.08242  -0.00741   0.01801   0.00513  -0.64731
   74 O4      .Z       -0.02575   0.00741  -0.00008   0.00000   0.00409
   75 O4      .S        0.09988   1.20207  -0.10954   0.00284   0.00000
   76 O4      .X        0.22200   0.00427  -0.01025   0.06857   0.85214
   77 O4      .Y       -0.24595  -0.00427   0.01379   0.06795   0.84679
   78 O4      .Z        0.22201   0.00427  -0.01117   0.00029  -0.00534
   79 O4      .XX       0.04454  -0.24893  -0.00109   0.00011  -0.09899
   80 O4      .YY       0.03472  -0.24893  -0.00109  -0.00005   0.09836
   81 O4      .ZZ       0.04455  -0.24893  -0.00581   0.00015   0.00062
   82 O4      .XY      -0.03488   0.00085  -0.00037   0.00001   0.00060
   83 O4      .XZ       0.04326  -0.00085  -0.00372   0.00113  -0.09378
   84 O4      .YZ      -0.03489   0.00085   0.00377   0.00094  -0.09437
   85 O5      .S       -0.00375  -0.08455   0.00000  -0.00000  -0.00010
   86 O5      .S        0.01176  -0.22566  -0.00000   0.00000   0.00062
   87 O5      .X       -0.02575  -0.00741  -0.39162  -0.63942   0.00550
   88 O5      .Y        0.08242   0.00741   0.35794  -0.65887   0.00570
   89 O5      .Z        0.02575   0.00741  -0.74957   0.01944   0.00000
   90 O5      .S       -0.09988   1.20207   0.00000  -0.00000   0.00060
   91 O5      .X        0.22200  -0.00427   0.51231   0.83647   0.06822
   92 O5      .Y       -0.24595   0.00427  -0.46825   0.86191   0.06835
   93 O5      .Z       -0.22201   0.00427   0.98056  -0.02544   0.00006
   94 O5      .XX      -0.04454  -0.24893   0.05951   0.09717  -0.00007
   95 O5      .YY      -0.03472  -0.24893   0.05439  -0.10012   0.00009
   96 O5      .ZZ      -0.04455  -0.24893  -0.11390   0.00295   0.00003
   97 O5      .XY       0.03488   0.00085  -0.10859   0.00282   0.00000
   98 O5      .XZ       0.04326   0.00085   0.05186  -0.09545   0.00102
   99 O5      .YZ      -0.03488  -0.00085  -0.05674  -0.09263   0.00106
                          46        47        48        49        50
                           V         V         V         V         V    
     Eigenvalues --    32.91808  33.15037  33.15321  33.15321  33.15321
    1 Mn1     .S        0.00000   0.00000   0.00000   0.00000   0.00000
    2 Mn1     .S        0.00000  -0.00000  -0.00000  -0.00000  -0.00000
    3 Mn1     .X       -0.01241  -0.01680   0.01029   0.01040  -0.01800
    4 Mn1     .Y       -0.00867   0.01901  -0.01049   0.01039   0.01800
    5 Mn1     .Z       -0.02109   0.00221  -0.02078  -0.02078  -0.00001
    6 Mn1     .S        0.00000  -0.00000  -0.00000  -0.00000  -0.00000
    7 Mn1     .X       -0.07875  -0.10559   0.06475   0.06539  -0.11320
    8 Mn1     .Y       -0.05525   0.11961  -0.06598   0.06534   0.11323
    9 Mn1     .Z       -0.13399   0.01403  -0.13073  -0.13073  -0.00003
   10 Mn1     .S       -0.00000  -0.00000  -0.00000  -0.00000  -0.00000
   11 Mn1     .X       -0.27911  -0.37517   0.23001   0.23230  -0.40213
   12 Mn1     .Y       -0.19562   0.42486  -0.23439   0.23210   0.40224
   13 Mn1     .Z       -0.47472   0.04968  -0.46440  -0.46440  -0.00011
   14 Mn1     .S       -0.00000  -0.00000  -0.00000  -0.00000  -0.00000
   15 Mn1     .X        0.02944   0.03915  -0.02402  -0.02426   0.04200
   16 Mn1     .Y        0.02072  -0.04440   0.02448  -0.02424  -0.04201
   17 Mn1     .Z        0.05016  -0.00525   0.04850   0.04850   0.00001
   18 Mn1     .XX      -0.00845  -0.00852   0.00535  -0.00541   0.00936
   19 Mn1     .YY      -0.00655   0.01011   0.00546  -0.00540  -0.00936
   20 Mn1     .ZZ       0.01500  -0.00159  -0.01081   0.01081   0.00000
   21 Mn1     .XY      -0.00040   0.00005   0.00123   0.00123   0.00000
   22 Mn1     .XZ      -0.00032  -0.00103   0.00062  -0.00062  -0.00107
   23 Mn1     .YZ      -0.00008   0.00109  -0.00061  -0.00062   0.00107
   24 Mn1     .XX       0.07339   0.08989  -0.05551   0.05607  -0.09706
   25 Mn1     .YY       0.05335  -0.10322  -0.05658   0.05602   0.09709
   26 Mn1     .ZZ      -0.12673   0.01333   0.11209  -0.11209  -0.00003
   27 Mn1     .XY       0.03820  -0.00403   0.03172   0.03172   0.00001
   28 Mn1     .XZ       0.01627  -0.02934   0.01601  -0.01585  -0.02747
   29 Mn1     .YZ       0.02192   0.02531  -0.01571  -0.01587   0.02747
   30 Mn1     .XXX     -0.01045   0.01325   0.01436   0.01429   0.01211
   31 Mn1     .YYY     -0.00403   0.01204  -0.00674   0.00667   0.01157
   32 Mn1     .ZZZ      0.01048  -0.00108   0.01335   0.01335   0.00000
   33 Mn1     .XYY     -0.00646   0.01676   0.00989   0.00980   0.01601
   34 Mn1     .XXY      0.00221   0.01561   0.00034  -0.00043   0.01576
   35 Mn1     .XXZ      0.00530  -0.01712   0.00905   0.00895   0.01649
   36 Mn1     .XZZ     -0.01513   0.00205   0.01876   0.01876   0.00049
   37 Mn1     .YZZ     -0.01523   0.00108  -0.01876   0.01876  -0.00048
   38 Mn1     .YYZ      0.00530  -0.01712   0.00905   0.00895   0.01649
   39 Mn1     .XYZ     -0.00000   0.00000   0.00000   0.00000   0.00000
   40 O2      .S       -0.01760   0.00184  -0.00875  -0.00000   0.00000
   41 O2      .S        0.11245  -0.01175   0.05696   0.00000  -0.00000
   42 O2      .X       -0.01714   0.00788  -0.01430   0.37055  -0.64145
   43 O2      .Y       -0.01841  -0.00416  -0.00027   0.37024   0.64163
   44 O2      .Z       -0.00008   0.00001  -0.00385  -0.74078  -0.00018
   45 O2      .S        0.10898  -0.01142   0.05277   0.00000  -0.00000
   46 O2      .X       -0.00505   0.06750  -0.06341  -0.48345   0.83688
   47 O2      .Y       -0.01888  -0.06500  -0.00691  -0.48304  -0.83712
   48 O2      .Z       -0.01112   0.00115   0.05160   0.96649   0.00024
   49 O2      .XX       0.00106  -0.00032   0.00088  -0.06535   0.11312
   50 O2      .YY       0.00111   0.00010   0.00368  -0.06529  -0.11315
   51 O2      .ZZ       0.00578  -0.00060   0.00051   0.13064   0.00003
   52 O2      .XY      -0.00036   0.00004   0.00346  -0.14490  -0.00004
   53 O2      .XZ       0.00359  -0.00169  -0.00027   0.07242   0.12551
   54 O2      .YZ       0.00387   0.00092   0.00120   0.07248  -0.12547
   55 O3      .S        0.00000   0.00000  -0.00858  -0.01733  -0.00000
   56 O3      .S       -0.00000   0.00000   0.05589   0.11285   0.00003
   57 O3      .X       -0.43952  -0.59907   0.00026   0.01798   0.00606
   58 O3      .Y       -0.30623   0.67706   0.01416   0.01798  -0.00605
   59 O3      .Z       -0.74575   0.07799  -0.00365  -0.00053  -0.00000
   60 O3      .S       -0.00000  -0.00000   0.05179   0.10456   0.00003
   61 O3      .X        0.57472   0.78146   0.00678   0.01168   0.06661
   62 O3      .Y        0.40085  -0.88349   0.06366   0.01171  -0.06661
   63 O3      .Z        0.97557  -0.10204   0.05207  -0.01369  -0.00000
   64 O3      .XX      -0.06850  -0.10664   0.00361   0.00137   0.00021
   65 O3      .YY      -0.04483   0.11839   0.00087   0.00137  -0.00021
   66 O3      .ZZ       0.11333  -0.01176   0.00049   0.00728   0.00000
   67 O3      .XY      -0.10806   0.01110   0.00342  -0.00054  -0.00000
   68 O3      .XZ      -0.04082   0.13034  -0.00114  -0.00461  -0.00131
   69 O3      .YZ      -0.06724  -0.11924   0.00027  -0.00461   0.00131
   70 O4      .S        0.01036   0.01401  -0.00000   0.00866   0.01501
   71 O4      .S       -0.06638  -0.09132   0.00000  -0.05640  -0.09774
   72 O4      .X       -0.00009  -0.00045   0.36689  -0.01423  -0.01255
   73 O4      .Y        0.01501   0.01105  -0.37388   0.00026   0.00046
   74 O4      .Z       -0.00600  -0.01807  -0.74077  -0.00375  -0.01860
   75 O4      .S       -0.06388  -0.08436   0.00000  -0.05226  -0.09056
   76 O4      .X       -0.00680  -0.01121  -0.47867  -0.06354   0.02316
   77 O4      .Y        0.06239  -0.02983   0.48780   0.00684   0.01186
   78 O4      .Z        0.04833  -0.04873   0.96647   0.05185  -0.04342
   79 O4      .XX      -0.00355  -0.00597   0.06470  -0.00087  -0.00108
   80 O4      .YY      -0.00072  -0.00101   0.06593  -0.00364  -0.00631
   81 O4      .ZZ      -0.00061  -0.00124  -0.13063  -0.00050  -0.00130
   82 O4      .XY       0.00311   0.00303  -0.14490   0.00344   0.00334
   83 O4      .XZ      -0.00146  -0.00452  -0.07313   0.00027   0.00047
   84 O4      .YZ      -0.00023  -0.00045   0.07177   0.00117   0.00465
   85 O5      .S        0.00724  -0.01585   0.01733   0.00867  -0.01501
   86 O5      .S       -0.04607   0.10308  -0.11285  -0.05645   0.09771
   87 O5      .X        0.01241  -0.01391   0.01801   0.00026  -0.00046
   88 O5      .Y        0.00001   0.00046  -0.01795  -0.01423   0.01254
   89 O5      .Z       -0.00213   0.01892  -0.00053  -0.00375   0.01860
   90 O5      .S       -0.04510   0.09577  -0.10456  -0.05230   0.09054
   91 O5      .X        0.06720   0.01627   0.01206   0.00685  -0.01185
   92 O5      .Y       -0.00431   0.01236  -0.01133  -0.06353  -0.02319
   93 O5      .Z        0.05734   0.03767  -0.01369   0.05183   0.04345
   94 O5      .XX      -0.00050   0.00114  -0.00137  -0.00364   0.00631
   95 O5      .YY      -0.00223   0.00657  -0.00137  -0.00087   0.00108
   96 O5      .ZZ      -0.00034   0.00134  -0.00728  -0.00050   0.00130
   97 O5      .XY       0.00241  -0.00360  -0.00054   0.00344  -0.00334
   98 O5      .XZ      -0.00013   0.00049   0.00462   0.00117  -0.00465
   99 O5      .YZ      -0.00048   0.00472  -0.00460   0.00027  -0.00047
                          51        52        53        54        55
                           V         V         V         V         V    
     Eigenvalues --    34.30331  43.96807  43.96807  45.79020  45.79020
    1 Mn1     .S       -0.05147  -0.00000   0.00000  -0.00217  -0.00217
    2 Mn1     .S       -0.13532  -0.00000   0.00000   0.05405   0.05405
    3 Mn1     .X        0.00000   0.00000   0.00000   0.00534  -0.00534
    4 Mn1     .Y        0.00000   0.00000   0.00000  -0.00534  -0.00534
    5 Mn1     .Z        0.00000   0.00000   0.00000   0.00534  -0.00534
    6 Mn1     .S        0.13222   0.00000   0.00000   0.21732   0.21732
    7 Mn1     .X        0.00000   0.00000   0.00000   0.24214  -0.24214
    8 Mn1     .Y        0.00000   0.00000   0.00000  -0.24214  -0.24214
    9 Mn1     .Z       -0.00000   0.00000   0.00000   0.24214  -0.24214
   10 Mn1     .S        3.27423  -0.00000   0.00000   0.75758   0.75758
   11 Mn1     .X        0.00000   0.00000   0.00000   0.60390  -0.60390
   12 Mn1     .Y        0.00000   0.00000   0.00000  -0.60390  -0.60390
   13 Mn1     .Z       -0.00000   0.00000   0.00000   0.60390  -0.60390
   14 Mn1     .S        0.86148  -0.00000   0.00000   0.12313   0.12313
   15 Mn1     .X       -0.00000  -0.00000  -0.00000  -0.13487   0.13487
   16 Mn1     .Y       -0.00000  -0.00000  -0.00000   0.13487   0.13487
   17 Mn1     .Z        0.00000  -0.00000  -0.00000  -0.13487   0.13487
   18 Mn1     .XX      -0.28676  -0.42332   0.73321   0.02525   0.02525
   19 Mn1     .YY      -0.28676  -0.42332  -0.73321   0.02525   0.02525
   20 Mn1     .ZZ      -0.28676   0.84664  -0.00000   0.02525   0.02525
   21 Mn1     .XY      -0.00000  -0.00000  -0.00000  -0.05300   0.05300
   22 Mn1     .XZ       0.00000  -0.00000  -0.00000   0.05300   0.05300
   23 Mn1     .YZ       0.00000  -0.00000  -0.00000  -0.05300   0.05300
[...]
   72 O4      .X       -0.00889   0.01912   0.09087   0.04842   0.03861
   73 O4      .Y       -0.00882  -0.01913   0.08997  -0.06848  -0.05118
   74 O4      .Z        0.00005   0.01209  -0.00089   0.05130   0.05966
   75 O4      .S        0.00059  -0.12828   0.03222   0.14709   0.12909
   76 O4      .X        0.04172  -0.01307  -0.19999   0.15005   0.02932
   77 O4      .Y        0.04124   0.01309  -0.20097  -0.13985  -0.16299
   78 O4      .Z       -0.00031   0.05716   0.00345   0.02653   0.09407
   79 O4      .XX       0.00570   0.02640  -0.92423   0.06714  -0.01723
   80 O4      .YY      -0.00576   0.02639   0.89295   0.02163   0.06800
   81 O4      .ZZ      -0.00020   0.04310  -0.00231  -0.03543  -0.00188
   82 O4      .XY       0.00001  -0.00320   0.00067  -0.03978  -0.01855
   83 O4      .XZ      -0.00318   0.01773   0.07337   0.00851  -0.01093
   84 O4      .YZ      -0.00304  -0.01773   0.07702   0.00622  -0.03087
   85 O5      .S       -0.00093  -0.00132   0.00001   0.01758  -0.00804
   86 O5      .S       -0.00128  -0.00137  -0.00006  -0.12053   0.05601
   87 O5      .X       -0.09079  -0.05243   0.00875   0.04909  -0.02681
   88 O5      .Y       -0.09006   0.05238   0.00895  -0.06916   0.01429
   89 O5      .Z        0.00041  -0.10422   0.00026  -0.05039   0.03854
   90 O5      .S        0.01010   0.01386   0.00075  -0.14747   0.06879
   91 O5      .X        0.20094   0.11565  -0.04225   0.15065  -0.09017
   92 O5      .Y        0.20003  -0.11556  -0.04071  -0.14046  -0.04569
   93 O5      .Z       -0.00054   0.23165  -0.00011  -0.02613   0.10812
   94 O5      .XX      -0.91223  -0.52975   0.00588  -0.06718   0.03971
   95 O5      .YY       0.90506  -0.52931  -0.00558  -0.02167  -0.04735
   96 O5      .ZZ      -0.00398   1.04429  -0.00004   0.03538   0.03369
   97 O5      .XY       0.00141  -0.08573  -0.00004   0.03980   0.00755
   98 O5      .XZ      -0.07382   0.04450   0.00303   0.00855  -0.03534
   99 O5      .YZ      -0.07657  -0.04453   0.00319   0.00617  -0.00727
                          86        87        88        89        90
                           V         V         V         V         V    
     Eigenvalues --  27211.395227211.395227211.395227211.395227211.3952
    1 Mn1     .S       -0.00000   0.00000   0.00000  -0.00000  -0.00000
    2 Mn1     .S       -0.00000   0.00000   0.00000  -0.00000  -0.00000
    3 Mn1     .X       -0.00359  -0.00000  -0.00025   0.00946  -0.00001
    4 Mn1     .Y        0.00899  -0.00000  -0.00950  -0.00025  -0.00000
    5 Mn1     .Z       -0.01450   0.00950  -0.00000   0.00000   0.00013
    6 Mn1     .S       -0.00000   0.00000   0.00000  -0.00000  -0.00000
    7 Mn1     .X       -0.03800  -0.00002   0.00061  -0.02183  -0.00017
    8 Mn1     .Y        0.09527  -0.00001   0.02151   0.00056  -0.00000
    9 Mn1     .Z       -0.15363  -0.02153  -0.00000  -0.00001   0.00314
   10 Mn1     .S       -0.00000   0.00000   0.00000  -0.00000  -0.00000
   11 Mn1     .X       -0.11554  -0.00004  -0.00035   0.01591  -0.00043
   12 Mn1     .Y        0.28970  -0.00002  -0.01688  -0.00046  -0.00000
   13 Mn1     .Z       -0.46719   0.01684  -0.00000  -0.00001   0.00819
   14 Mn1     .S       -0.00000   0.00000   0.00000  -0.00000  -0.00000
   15 Mn1     .X        0.05200   0.00004   0.00032  -0.01496   0.00026
   16 Mn1     .Y       -0.13037   0.00003   0.01602   0.00043   0.00000
   17 Mn1     .Z        0.21024  -0.01598   0.00001   0.00001  -0.00485
   18 Mn1     .XX      -0.00599   0.00000   0.00000   0.00000  -0.01889
   19 Mn1     .YY      -0.00575   0.00000   0.00000   0.00000   0.01877
   20 Mn1     .ZZ       0.01175  -0.00000  -0.00000  -0.00000   0.00012
   21 Mn1     .XY       0.39722  -0.08396  -0.00001   0.00003  -0.00905
   22 Mn1     .XZ      -0.24631  -0.00000   0.08392   0.00227   0.00000
   23 Mn1     .YZ       0.09824   0.00002   0.00219  -0.08399   0.00048
   24 Mn1     .XX      -0.00421  -0.00000   0.00000  -0.00000  -0.01326
   25 Mn1     .YY      -0.00404  -0.00000   0.00000  -0.00000   0.01318
   26 Mn1     .ZZ       0.00825   0.00000  -0.00000   0.00000   0.00008
   27 Mn1     .XY      -0.61747  -0.02499   0.00000  -0.00004   0.01425
   28 Mn1     .XZ       0.38289  -0.00001   0.02499   0.00059  -0.00000
   29 Mn1     .YZ      -0.15270  -0.00005   0.00073  -0.02501  -0.00076
   30 Mn1     .XXX      0.78097  -0.00013  -0.00707   0.26390  -0.00049
   31 Mn1     .YYY      0.06780  -0.00003   1.05557   0.02798  -0.00000
   32 Mn1     .ZZZ      0.10934   1.05594   0.00003  -0.00002  -0.00253
   33 Mn1     .XYY      0.71061  -0.00010  -0.01885   0.70811  -0.00038
   34 Mn1     .XXY      0.23793  -0.00003   1.06214   0.02813   0.00002
   35 Mn1     .XXZ      0.07835   0.70835   0.00002  -0.00001   0.93787
   36 Mn1     .XZZ      0.67434  -0.00014   0.01873  -0.70812  -0.00056
   37 Mn1     .YZZ     -0.29393  -0.00002   0.70811   0.01883  -0.00005
   38 Mn1     .YYZ      0.07835   0.70835   0.00002  -0.00001   0.93787
   39 Mn1     .XYZ      0.00000  -0.00000  -0.00000   0.00000   0.00000
   40 O2      .S       -0.00806   0.01204  -0.01236   0.01172   0.00022
   41 O2      .S        0.05210   0.01340  -0.01375   0.01304  -0.00154
   42 O2      .X       -0.02170  -0.04286   0.04393  -0.03983   0.00358
   43 O2      .Y       -0.02291  -0.04286   0.04215  -0.04174  -0.00233
   44 O2      .Z       -0.02347  -0.04103   0.04398  -0.04169   0.00090
   45 O2      .S        0.06277  -0.08896   0.09128  -0.08650  -0.00188
   46 O2      .X       -0.07487   0.01888  -0.01763  -0.04742  -0.09366
   47 O2      .Y        0.05038   0.01887   0.04627   0.01997   0.09578
   48 O2      .Z       -0.09328  -0.04678  -0.01937   0.01823   0.00192
   49 O2      .XX       0.03571   0.04560  -0.04826   0.09988   0.07986
   50 O2      .YY      -0.05688   0.04561  -0.10228   0.04293  -0.08020
   51 O2      .ZZ       0.03977   0.10110  -0.04679   0.04440  -0.00034
   52 O2      .XY      -0.01287  -0.00601  -0.06104   0.05790  -0.00007
   53 O2      .XZ       0.03604   0.05948   0.00444   0.05964   0.03545
   54 O2      .YZ      -0.00835   0.05948  -0.05930  -0.00757  -0.03591
   55 O3      .S       -0.01764   0.01204   0.01236  -0.01172   0.00025
   56 O3      .S        0.11403   0.01339   0.01375  -0.01303  -0.00171
   57 O3      .X        0.04918   0.04285   0.04393  -0.03983  -0.00368
   58 O3      .Y        0.04804   0.04285   0.04215  -0.04174   0.00226
   59 O3      .Z       -0.05180  -0.04102  -0.04398   0.04169   0.00097
   60 O3      .S        0.13739  -0.08897  -0.09128   0.08651  -0.00209
   61 O3      .X        0.03588  -0.01890  -0.01763  -0.04741   0.09345
   62 O3      .Y        0.15911  -0.01891   0.04627   0.01998  -0.09600
   63 O3      .Z       -0.06276  -0.04678   0.01937  -0.01824   0.00194
   64 O3      .XX      -0.01802   0.04559   0.04826  -0.09988   0.07982
   65 O3      .YY       0.07287   0.04558   0.10228  -0.04293  -0.08030
   66 O3      .ZZ      -0.01411   0.10111   0.04680  -0.04441  -0.00027
   67 O3      .XY       0.02121  -0.00603   0.06104  -0.05790  -0.00014
   68 O3      .XZ       0.01620  -0.05948   0.00444   0.05964  -0.03546
   69 O3      .YZ      -0.02743  -0.05948  -0.05930  -0.00756   0.03592
   70 O4      .S        0.02400  -0.01204  -0.01172  -0.01236  -0.00022
   71 O4      .S       -0.15511  -0.01340  -0.01303  -0.01373   0.00154
   72 O4      .X       -0.06801  -0.04286  -0.04175  -0.04209   0.00229
   73 O4      .Y        0.06949   0.04286   0.03988   0.04391   0.00105
   74 O4      .Z       -0.06522  -0.04103  -0.04170  -0.04396   0.00091
   75 O4      .S       -0.18689   0.08896   0.08659   0.09123   0.00188
   76 O4      .X       -0.07461   0.01888   0.02015  -0.04642  -0.09456
   77 O4      .Y        0.04630  -0.01888   0.04725  -0.01751  -0.09669
   78 O4      .Z       -0.22969  -0.04677   0.01841   0.01925   0.00192
   79 O4      .XX       0.01167  -0.04560  -0.04290  -0.10231  -0.07985
   80 O4      .YY       0.04096  -0.04561  -0.09986  -0.04829   0.08020
   81 O4      .ZZ      -0.10805  -0.10110  -0.04436  -0.04681   0.00033
   82 O4      .XY      -0.02658  -0.00601   0.05788   0.06106  -0.00008
   83 O4      .XZ      -0.04121  -0.05948   0.00760  -0.05932  -0.03545
   84 O4      .YZ       0.02949   0.05948   0.05962  -0.00442  -0.03591
   85 O5      .S        0.00170  -0.01204   0.01172   0.01236  -0.00025
   86 O5      .S       -0.01101  -0.01339   0.01303   0.01373   0.00171
   87 O5      .X        0.00369   0.04285  -0.04175  -0.04209  -0.00239
   88 O5      .Y       -0.00225  -0.04285   0.03988   0.04390  -0.00098
   89 O5      .Z       -0.00846  -0.04102   0.04170   0.04395   0.00098
   90 O5      .S       -0.01327   0.08897  -0.08659  -0.09124   0.00209
   91 O5      .X        0.03671  -0.01890   0.02015  -0.04642   0.09437
   92 O5      .Y       -0.06298   0.01890   0.04725  -0.01751   0.09691
   93 O5      .Z        0.07479  -0.04679  -0.01841  -0.01926   0.00195
   94 O5      .XX      -0.02937  -0.04559   0.04289   0.10231  -0.07983
   95 O5      .YY      -0.05695  -0.04559   0.09986   0.04829   0.08030
   96 O5      .ZZ       0.08238  -0.10112   0.04436   0.04681   0.00028
   97 O5      .XY       0.03492  -0.00603  -0.05788  -0.06106  -0.00013
   98 O5      .XZ      -0.02137   0.05948   0.00760  -0.05932   0.03546
   99 O5      .YZ       0.01042  -0.05948   0.05961  -0.00442   0.03592
                          91        92        93        94        95
                           V         V         V         V         V    
     Eigenvalues --  27211.395227211.395227211.395227211.395227211.3952
    1 Mn1     .S       -0.01548  -0.01418  -0.01418  -0.01429  -0.01427
    2 Mn1     .S       -0.15881   0.04984   0.04988   0.05882   0.06220
    3 Mn1     .X       -0.00000  -0.00522   0.00520   0.00061   0.00116
    4 Mn1     .Y       -0.00000  -0.00522   0.00520  -0.00068  -0.00114
    5 Mn1     .Z       -0.00000  -0.00522  -0.00520   0.00077  -0.00113
    6 Mn1     .S       -0.61826   0.23156   0.23206   0.34378   0.38764
    7 Mn1     .X       -0.00000  -0.27827   0.27841   0.30802  -0.31972
    8 Mn1     .Y       -0.00000  -0.27827   0.27841  -0.30880   0.31995
    9 Mn1     .Z        0.00000  -0.27826  -0.27841   0.30968   0.32012
   10 Mn1     .S       -0.18355   1.44070   1.44091   1.47828   1.48758
   11 Mn1     .X       -0.00000  -0.61611   0.61627   0.64542  -0.65761
   12 Mn1     .Y       -0.00000  -0.61612   0.61626  -0.64786   0.65832
   13 Mn1     .Z        0.00000  -0.61610  -0.61627   0.65066   0.65884
   14 Mn1     .S        0.25680   0.23734   0.23742   0.25491   0.26098
   15 Mn1     .X        0.00000   0.02885  -0.02890  -0.03994   0.04467
   16 Mn1     .Y        0.00000   0.02885  -0.02890   0.04029  -0.04477
   17 Mn1     .Z       -0.00000   0.02885   0.02891  -0.04068  -0.04484
   18 Mn1     .XX      -0.26549  -0.08568  -0.08551  -0.04619  -0.02929
   19 Mn1     .YY      -0.26549  -0.08568  -0.08551  -0.04552  -0.02910
   20 Mn1     .ZZ      -0.26549  -0.08569  -0.08551  -0.04477  -0.02896
   21 Mn1     .XY       0.00000  -0.01194  -0.01193   0.00945   0.00761
   22 Mn1     .XZ      -0.00000  -0.01194   0.01193  -0.00874   0.00747
   23 Mn1     .YZ      -0.00000  -0.01194   0.01193   0.00812  -0.00729
   24 Mn1     .XX       0.73740  -0.12121  -0.12134  -0.14820  -0.16150
   25 Mn1     .YY       0.73740  -0.12122  -0.12134  -0.15073  -0.16224
   26 Mn1     .ZZ       0.73740  -0.12121  -0.12135  -0.15357  -0.16278
   27 Mn1     .XY       0.00000   0.00064   0.00051   0.03026   0.04550
   28 Mn1     .XZ      -0.00000   0.00065  -0.00050  -0.03282   0.04598
   29 Mn1     .YZ      -0.00000   0.00065  -0.00050   0.03508  -0.04664
   30 Mn1     .XXX      0.00000  -0.01173   0.01173   0.01041  -0.00925
   31 Mn1     .YYY     -0.00000   0.04692  -0.04689   0.03970  -0.03666
   32 Mn1     .ZZZ     -0.00000  -0.04692  -0.04689   0.04004   0.03672
   33 Mn1     .XYY      0.00000  -0.03148   0.03146   0.02693  -0.02463
   34 Mn1     .XXY     -0.00000   0.04722  -0.04719   0.04043  -0.03700
   35 Mn1     .XXZ     -0.00000  -0.03148  -0.03146   0.02641   0.02450
   36 Mn1     .XZZ      0.00000   0.03148  -0.03146  -0.02592   0.02443
   37 Mn1     .YZZ     -0.00000   0.03148  -0.03146   0.02568  -0.02436
   38 Mn1     .YYZ     -0.00000  -0.03148  -0.03146   0.02641   0.02450
   39 Mn1     .XYZ      1.23608   0.03214   0.03207   0.01502   0.00806
   40 O2      .S        0.02826  -0.50306  -0.01228  -0.01258  -0.01263
   41 O2      .S        0.10393  -0.28218  -0.02858  -0.02783  -0.02737
   42 O2      .X        0.07472   0.10682   0.00560   0.00445  -0.02475
   43 O2      .Y        0.07472   0.10682   0.00560  -0.02478   0.00408
   44 O2      .Z        0.07472   0.10682  -0.02467   0.00468   0.00410
   45 O2      .S       -0.63077   5.07139   0.29459   0.29715   0.29674
   46 O2      .X        0.28561  -0.50150  -0.15035  -0.15353   0.05037
   47 O2      .Y        0.28561  -0.50149  -0.15035   0.05403  -0.15489
   48 O2      .Z        0.28561  -0.50150   0.06224  -0.15463  -0.15500
   49 O2      .XX      -0.02800  -1.70431  -0.01233  -0.01265  -0.04119
   50 O2      .YY      -0.02800  -1.70433  -0.01233  -0.04320  -0.01258
   51 O2      .ZZ      -0.02800  -1.70428  -0.04753  -0.01250  -0.01256
   52 O2      .XY      -0.14413   0.03873   0.00595   0.00451   0.00580
   53 O2      .XZ      -0.14413   0.03872   0.00125   0.00722   0.00580
   54 O2      .YZ      -0.14413   0.03872   0.00125   0.00443   0.00771
   55 O3      .S        0.02826  -0.01228  -0.50310  -0.01247  -0.01266
   56 O3      .S        0.10393  -0.02858  -0.28204  -0.02764  -0.02743
   57 O3      .X       -0.07472  -0.00560  -0.10695   0.02491  -0.00412
   58 O3      .Y       -0.07472  -0.00560  -0.10695  -0.00430   0.02472
   59 O3      .Z        0.07472  -0.02467   0.10695   0.00443   0.00418
   60 O3      .S       -0.63077   0.29456   5.07166   0.29577   0.29714
   61 O3      .X       -0.28561   0.15033   0.50184  -0.05342   0.15486
   62 O3      .Y       -0.28561   0.15033   0.50184   0.15364  -0.05054
   63 O3      .Z        0.28561   0.06227  -0.50183  -0.15423  -0.15512
   64 O3      .XX      -0.02800  -0.01233  -1.70432  -0.04274  -0.01267
   65 O3      .YY      -0.02800  -0.01233  -1.70431  -0.01234  -0.04132
   66 O3      .ZZ      -0.02800  -0.04755  -1.70436  -0.01226  -0.01264
   67 O3      .XY      -0.14413   0.00595   0.03903   0.00468   0.00575
   68 O3      .XZ       0.14413  -0.00124  -0.03904  -0.00464  -0.00770
   69 O3      .YZ       0.14413  -0.00124  -0.03904  -0.00725  -0.00574
   70 O4      .S        0.02826  -0.01228  -0.01228  -0.50880  -0.01268
   71 O4      .S        0.10393  -0.02858  -0.02858  -0.24850  -0.02747
   72 O4      .X       -0.07472  -0.00560   0.02467  -0.13731  -0.00418
   73 O4      .Y        0.07472  -0.02467   0.00560   0.13620   0.00421
   74 O4      .Z       -0.07472  -0.00560  -0.00560  -0.13485   0.02469
   75 O4      .S       -0.63077   0.29457   0.29459   5.09592   0.29743
   76 O4      .X       -0.28561   0.15033  -0.06224   0.57851   0.15495
   77 O4      .Y        0.28561   0.06227  -0.15035  -0.57605  -0.15510
   78 O4      .Z       -0.28561   0.15033   0.15035   0.57315  -0.05068
   79 O4      .XX      -0.02800  -0.01233  -0.04753  -1.68538  -0.01273
   80 O4      .YY      -0.02800  -0.04755  -0.01233  -1.69657  -0.01270
   81 O4      .ZZ      -0.02800  -0.01233  -0.01233  -1.70931  -0.04142
   82 O4      .XY       0.14413  -0.00123  -0.00125  -0.10882  -0.00769
   83 O4      .XZ      -0.14413   0.00595   0.00125   0.11007   0.00571
   84 O4      .YZ       0.14413  -0.00123  -0.00595  -0.11100  -0.00570
   85 O5      .S        0.02826  -0.01228  -0.01228  -0.01270  -0.50910
   86 O5      .S        0.10393  -0.02858  -0.02858  -0.02803  -0.23395
   87 O5      .X        0.07472  -0.02467   0.00560   0.00475   0.14769
   88 O5      .Y       -0.07472  -0.00560   0.02467  -0.00485  -0.14736
   89 O5      .Z       -0.07472  -0.00560  -0.00560   0.02464  -0.14712
   90 O5      .S       -0.63077   0.29457   0.29459   0.29872   5.08565
   91 O5      .X        0.28561   0.06227  -0.15035  -0.15399  -0.60427
   92 O5      .Y       -0.28561   0.15033  -0.06224   0.15450   0.60355
   93 O5      .Z       -0.28561   0.15033   0.15035  -0.05472   0.60302
   94 O5      .XX      -0.02800  -0.04755  -0.01233  -0.01294  -1.68449
   95 O5      .YY      -0.02800  -0.01233  -0.04753  -0.01286  -1.68776
   96 O5      .ZZ      -0.02800  -0.01233  -0.01233  -0.04373  -1.69015
   97 O5      .XY       0.14413  -0.00123  -0.00125  -0.00718  -0.13802
   98 O5      .XZ       0.14413  -0.00123  -0.00595  -0.00428  -0.13822
   99 O5      .YZ      -0.14413   0.00595   0.00125   0.00424   0.13849
                          96
                           V    
     Eigenvalues --  27211.3952
    1 Mn1     .S        0.15393
    2 Mn1     .S        1.24721
    3 Mn1     .X        0.00000
    4 Mn1     .Y        0.00000
    5 Mn1     .Z       -0.00000
    6 Mn1     .S       17.61453
    7 Mn1     .X        0.00000
    8 Mn1     .Y        0.00000
    9 Mn1     .Z       -0.00000
   10 Mn1     .S       -1.12686
   11 Mn1     .X        0.00000
   12 Mn1     .Y        0.00000
   13 Mn1     .Z       -0.00000
   14 Mn1     .S       -0.13082
   15 Mn1     .X       -0.00000
   16 Mn1     .Y       -0.00000
   17 Mn1     .Z        0.00000
   18 Mn1     .XX       8.02041
   19 Mn1     .YY       8.02041
   20 Mn1     .ZZ       8.02041
   21 Mn1     .XY      -0.00000
   22 Mn1     .XZ       0.00000
   23 Mn1     .YZ       0.00000
   24 Mn1     .XX       0.51594
   25 Mn1     .YY       0.51594
   26 Mn1     .ZZ       0.51594
   27 Mn1     .XY      -0.00000
   28 Mn1     .XZ       0.00000
   29 Mn1     .YZ       0.00000
   30 Mn1     .XXX     -0.00000
   31 Mn1     .YYY      0.00000
   32 Mn1     .ZZZ      0.00000
   33 Mn1     .XYY     -0.00000
   34 Mn1     .XXY      0.00000
   35 Mn1     .XXZ      0.00000
   36 Mn1     .XZZ     -0.00000
   37 Mn1     .YZZ      0.00000
   38 Mn1     .YYZ      0.00000
   39 Mn1     .XYZ     -0.03633
   40 O2      .S        0.03549
   41 O2      .S        0.11116
   42 O2      .X       -0.04525
   43 O2      .Y       -0.04525
   44 O2      .Z       -0.04525
   45 O2      .S       -0.67644
   46 O2      .X        0.13289
   47 O2      .Y        0.13289
   48 O2      .Z        0.13289
   49 O2      .XX       0.11673
   50 O2      .YY       0.11673
   51 O2      .ZZ       0.11673
   52 O2      .XY      -0.00147
   53 O2      .XZ      -0.00147
   54 O2      .YZ      -0.00147
   55 O3      .S        0.03549
   56 O3      .S        0.11116
   57 O3      .X        0.04525
   58 O3      .Y        0.04525
   59 O3      .Z       -0.04525
   60 O3      .S       -0.67644
   61 O3      .X       -0.13289
   62 O3      .Y       -0.13289
   63 O3      .Z        0.13289
   64 O3      .XX       0.11673
   65 O3      .YY       0.11673
   66 O3      .ZZ       0.11673
   67 O3      .XY      -0.00147
   68 O3      .XZ       0.00147
   69 O3      .YZ       0.00147
   70 O4      .S        0.03549
   71 O4      .S        0.11116
   72 O4      .X        0.04525
   73 O4      .Y       -0.04525
   74 O4      .Z        0.04525
   75 O4      .S       -0.67644
   76 O4      .X       -0.13289
   77 O4      .Y        0.13289
   78 O4      .Z       -0.13289
   79 O4      .XX       0.11673
   80 O4      .YY       0.11673
   81 O4      .ZZ       0.11673
   82 O4      .XY       0.00147
   83 O4      .XZ      -0.00147
   84 O4      .YZ       0.00147
   85 O5      .S        0.03549
   86 O5      .S        0.11116
   87 O5      .X       -0.04525
   88 O5      .Y        0.04525
   89 O5      .Z        0.04525
   90 O5      .S       -0.67644
   91 O5      .X        0.13289
   92 O5      .Y       -0.13289
   93 O5      .Z       -0.13289
   94 O5      .XX       0.11673
   95 O5      .YY       0.11673
   96 O5      .ZZ       0.11673
   97 O5      .XY       0.00147
   98 O5      .XZ       0.00147
   99 O5      .YZ      -0.00147
