 Entering Gaussian System

 Standard orientation:



 -------------------------------------------------------
     1  25    0     0.000000     0.000000     0.000000
     2   8    0     0.920665     0.920665     0.920665
     3   8    0    -0.920665    -0.920665     0.920665
     4   8    0    -0.920665     0.920665    -0.920665
     5   8    0     0.920665    -0.920665    -0.920665
 -------------------------------------------------------

 AO basis set (Overlap normalization):
 Atom Mn1     Shell     1 S    6
   5.6347140000e+04   1.7715799860e-03
   8.4609430000e+03   1.3570809890e-02
   1.9273250000e+03   6.6906049480e-02
   5.4323430000e+02   2.3185409820e-01
   1.7399050000e+02   4.7990459630e-01
   5.9360050000e+01   3.4957369730e-01
 Atom Mn1     Shell     2 SP   6
   1.1654120000e+03   2.3887510270e-03   3.9773179260e-03
   2.7732760000e+02   3.1817080360e-02   3.1031119420e-02
   8.9472780000e+01   1.2546700140e-01   1.3518939750e-01
   3.3482560000e+01  -2.9554310330e-02   3.4573869350e-01
   1.3540370000e+01  -6.1751600700e-01   4.6292049130e-01
   5.5579720000e+00  -4.5444580510e-01   2.0905919610e-01
 Atom Mn1     Shell     3 SP   6
   4.5835320000e+01  -3.6658561370e-03  -6.8875779020e-03
   1.5187770000e+01   7.2319712690e-02  -2.8468159590e-02
   6.5007100000e+00   2.5444860950e-01   6.0318319140e-02
   2.7515830000e+00  -2.9103801080e-01   3.9389609440e-01
   1.1454040000e+00  -7.3598602740e-01   5.0137689280e-01
   4.5368700000e-01  -1.9976170740e-01   1.7922639740e-01
 Atom Mn1     Shell     4 SP   3
   1.7579990000e+00   5.6285731860e-02  -5.0350238250e-01
   6.6702200000e-01   2.8974916100e-01   2.3450109190e-01
   1.0512900000e-01  -1.1406532400e+00   9.1412566820e-01
 Atom Mn1     Shell     5 SP   1
   3.8418000000e-02   1.0000000000e+00   1.0000000000e+00
 Atom Mn1     Shell     6 D    3
   2.0943550000e+01   8.6727023140e-02
   5.5104860000e+00   3.8418831390e-01
   1.6650380000e+00   7.0690712560e-01
 Atom Mn1     Shell     7 D    1
   4.6173300000e-01   1.0000000000e+00
 Atom Mn1     Shell     8 F    1
   8.0000000000e-01   1.0000000000e+00
 Atom  O2     Shell     9 S    6
   5.4846716600e+03   1.8310744300e-03
   8.2523494600e+02   1.3950172200e-02
   1.8804695800e+02   6.8445078100e-02
   5.2964500000e+01   2.3271433600e-01
   1.6897570400e+01   4.7019289800e-01
   5.7996353400e+00   3.5852085300e-01
 Atom  O2     Shell    10 SP   3
   1.5539616250e+01  -1.1077754950e-01   7.0874268230e-02
   3.5999335860e+00  -1.4802626270e-01   3.3975283910e-01
   1.0137617500e+00   1.1307670150e+00   7.2715857730e-01
 Atom  O2     Shell    11 SP   1
   2.7000582260e-01   1.0000000000e+00   1.0000000000e+00
 Atom  O2     Shell    12 D    1
   8.0000000000e-01   1.0000000000e+00
 Atom  O3     Shell    13 S    6
   5.4846716600e+03   1.8310744300e-03
   8.2523494600e+02   1.3950172200e-02
   1.8804695800e+02   6.8445078100e-02
   5.2964500000e+01   2.3271433600e-01
   1.6897570400e+01   4.7019289800e-01
   5.7996353400e+00   3.5852085300e-01
 Atom  O3     Shell    14 SP   3
   1.5539616250e+01  -1.1077754950e-01   7.0874268230e-02
   3.5999335860e+00  -1.4802626270e-01   3.3975283910e-01
   1.0137617500e+00   1.1307670150e+00   7.2715857730e-01
 Atom  O3     Shell    15 SP   1
   2.7000582260e-01   1.0000000000e+00   1.0000000000e+00
 Atom  O3     Shell    16 D    1
   8.0000000000e-01   1.0000000000e+00
 Atom  O4     Shell    17 S    6
   5.4846716600e+03   1.8310744300e-03
   8.2523494600e+02   1.3950172200e-02
   1.8804695800e+02   6.8445078100e-02
   5.2964500000e+01   2.3271433600e-01
   1.6897570400e+01   4.7019289800e-01
   5.7996353400e+00   3.5852085300e-01
 Atom  O4     Shell    18 SP   3
   1.5539616250e+01  -1.1077754950e-01   7.0874268230e-02
   3.5999335860e+00  -1.4802626270e-01   3.3975283910e-01
   1.0137617500e+00   1.1307670150e+00   7.2715857730e-01
 Atom  O4     Shell    19 SP   1
   2.7000582260e-01   1.0000000000e+00   1.0000000000e+00
 Atom  O4     Shell    20 D    1
   8.0000000000e-01   1.0000000000e+00
 Atom  O5     Shell    21 S    6
   5.4846716600e+03   1.8310744300e-03
   8.2523494600e+02   1.3950172200e-02
   1.8804695800e+02   6.8445078100e-02
   5.2964500000e+01   2.3271433600e-01
   1.6897570400e+01   4.7019289800e-01
   5.7996353400e+00   3.5852085300e-01
 Atom  O5     Shell    22 SP   3
   1.5539616250e+01  -1.1077754950e-01   7.0874268230e-02
   3.5999335860e+00  -1.4802626270e-01   3.3975283910e-01
   1.0137617500e+00   1.1307670150e+00   7.2715857730e-01
 Atom  O5     Shell    23 SP   1
   2.7000582260e-01   1.0000000000e+00   1.0000000000e+00
 Atom  O5     Shell    24 D    1
   8.0000000000e-01   1.0000000000e+00

 Molecular Orbital Coefficients:
                           1         2         3         4         5
                           O         O         O         O         O    
     Eigenvalues --  -6221.1199-858.62164-636.29377-636.29376-636.29376
    1 Mn1     .S        0.92348   0.49076  -0.00000   0.00000  -0.00000
    2 Mn1     .S       -0.21213   1.10414   0.00000   0.00000  -0.00000
    3 Mn1     .X        0.00000   0.00000   0.00000   1.01380  -0.00000
    4 Mn1     .Y        0.00000   0.00000   0.00000  -0.00000   1.01380
    5 Mn1     .Z        0.00000  -0.00000   1.01380   0.00000   0.00000
    6 Mn1     .S        0.12299  -0.29065   0.00000   0.00000   0.00000
    7 Mn1     .X        0.00000   0.00000  -0.00000  -0.04467   0.00000
    8 Mn1     .Y        0.00000   0.00000  -0.00000   0.00000  -0.04467
    9 Mn1     .Z        0.00000  -0.00000  -0.04467  -0.00000  -0.00000
   10 Mn1     .S        0.00066   0.00413   0.00000   0.00000   0.00000
   11 Mn1     .X        0.00000   0.00000   0.00000  -0.00264  -0.00000
   12 Mn1     .Y        0.00000   0.00000  -0.00000   0.00000  -0.00264
   13 Mn1     .Z        0.00000  -0.00000  -0.00264   0.00000  -0.00000
   14 Mn1     .S       -0.00009   0.00212   0.00000   0.00000  -0.00000
   15 Mn1     .X       -0.00000  -0.00000  -0.00000   0.00071   0.00000
   16 Mn1     .Y       -0.00000  -0.00000  -0.00000   0.00000   0.00071
   17 Mn1     .Z       -0.00000   0.00000   0.00071  -0.00000  -0.00000
   18 Mn1     .XX       0.00964   0.01013   0.00000   0.00000  -0.00000
   19 Mn1     .YY       0.00964   0.01013   0.00000   0.00000  -0.00000
   20 Mn1     .ZZ       0.00964   0.01013   0.00000  -0.00000   0.00000
   21 Mn1     .XY       0.00000  -0.00000   0.00020   0.00000   0.00000
   22 Mn1     .XZ       0.00000  -0.00000   0.00000  -0.00000   0.00020
   23 Mn1     .YZ      -0.00000   0.00000   0.00000   0.00020  -0.00000
   24 Mn1     .XX       0.00184   0.00129  -0.00000   0.00000  -0.00000
   25 Mn1     .YY       0.00184   0.00129  -0.00000   0.00000   0.00000
   26 Mn1     .ZZ       0.00184   0.00129  -0.00000  -0.00000   0.00000
   27 Mn1     .XY      -0.00000   0.00000   0.00039   0.00000   0.00000
   28 Mn1     .XZ       0.00000   0.00000   0.00000  -0.00000   0.00039
   29 Mn1     .YZ       0.00000  -0.00000   0.00000   0.00039  -0.00000
   30 Mn1     .XXX      0.00000   0.00000  -0.00000  -0.00004  -0.00000
   31 Mn1     .YYY      0.00000   0.00000  -0.00000  -0.00000   0.00017
   32 Mn1     .ZZZ      0.00000   0.00000  -0.00017  -0.00000   0.00000
   33 Mn1     .XYY      0.00000   0.00000  -0.00000  -0.00012  -0.00000
   34 Mn1     .XXY      0.00000   0.00000   0.00000  -0.00000   0.00017
   35 Mn1     .XXZ      0.00000   0.00000  -0.00012  -0.00000  -0.00000
   36 Mn1     .XZZ      0.00000   0.00000   0.00000   0.00012   0.00000
   37 Mn1     .YZZ     -0.00000   0.00000  -0.00000  -0.00000   0.00012
   38 Mn1     .YYZ      0.00000   0.00000  -0.00012  -0.00000  -0.00000
   39 Mn1     .XYZ      0.00003   0.00027  -0.00000  -0.00000  -0.00000
   40 O2      .S       -0.00039   0.00123  -0.00002  -0.00002  -0.00002
   41 O2      .S        0.00079  -0.00292  -0.00015  -0.00015  -0.00015
   42 O2      .X       -0.00079   0.00290   0.00038   0.00018   0.00038
   43 O2      .Y       -0.00079   0.00290   0.00038   0.00038   0.00018
   44 O2      .Z       -0.00079   0.00290   0.00018   0.00038   0.00038
   45 O2      .S        0.00163  -0.00432   0.00102   0.00102   0.00102
   46 O2      .X       -0.00075   0.00263  -0.00004   0.00052  -0.00004
   47 O2      .Y       -0.00075   0.00263  -0.00004  -0.00004   0.00052
   48 O2      .Z       -0.00075   0.00263   0.00052  -0.00004  -0.00004
   49 O2      .XX      -0.00012   0.00009  -0.00022  -0.00022  -0.00022
   50 O2      .YY      -0.00012   0.00009  -0.00022  -0.00022  -0.00022
   51 O2      .ZZ      -0.00012   0.00009  -0.00022  -0.00022  -0.00022
   52 O2      .XY      -0.00005   0.00008  -0.00030  -0.00029  -0.00029
   53 O2      .XZ      -0.00005   0.00008  -0.00029  -0.00029  -0.00030
   54 O2      .YZ      -0.00005   0.00008  -0.00029  -0.00030  -0.00029
   55 O3      .S       -0.00039   0.00123  -0.00002   0.00002   0.00002
   56 O3      .S        0.00079  -0.00292  -0.00015   0.00015   0.00015
   57 O3      .X        0.00079  -0.00290  -0.00038   0.00018   0.00038
   58 O3      .Y        0.00079  -0.00290  -0.00038   0.00038   0.00018
   59 O3      .Z       -0.00079   0.00290   0.00018  -0.00038  -0.00038
   60 O3      .S        0.00163  -0.00432   0.00102  -0.00102  -0.00102
   61 O3      .X        0.00075  -0.00263   0.00004   0.00052  -0.00004
   62 O3      .Y        0.00075  -0.00263   0.00004  -0.00004   0.00052
   63 O3      .Z       -0.00075   0.00263   0.00052   0.00004   0.00004
   64 O3      .XX      -0.00012   0.00009  -0.00022   0.00022   0.00022
   65 O3      .YY      -0.00012   0.00009  -0.00022   0.00022   0.00022
   66 O3      .ZZ      -0.00012   0.00009  -0.00022   0.00022   0.00022
   67 O3      .XY      -0.00005   0.00008  -0.00030   0.00029   0.00029
   68 O3      .XZ       0.00005  -0.00008   0.00029  -0.00029  -0.00030
   69 O3      .YZ       0.00005  -0.00008   0.00029  -0.00030  -0.00029
   70 O4      .S       -0.00039   0.00123   0.00002   0.00002  -0.00002
   71 O4      .S        0.00079  -0.00292   0.00015   0.00015  -0.00015
   72 O4      .X        0.00079  -0.00290   0.00038   0.00018  -0.00038
   73 O4      .Y       -0.00079   0.00290  -0.00038  -0.00038   0.00018
   74 O4      .Z        0.00079  -0.00290   0.00018   0.00038  -0.00038
   75 O4      .S        0.00163  -0.00432  -0.00102  -0.00102   0.00102
   76 O4      .X        0.00075  -0.00263  -0.00004   0.00052   0.00004
   77 O4      .Y       -0.00075   0.00263   0.00004   0.00004   0.00052
   78 O4      .Z        0.00075  -0.00263   0.00052  -0.00004   0.00004
   79 O4      .XX      -0.00012   0.00009   0.00022   0.00022  -0.00022
   80 O4      .YY      -0.00012   0.00009   0.00022   0.00022  -0.00022
   81 O4      .ZZ      -0.00012   0.00009   0.00022   0.00022  -0.00022
   82 O4      .XY       0.00005  -0.00008  -0.00030  -0.00029   0.00029
   83 O4      .XZ      -0.00005   0.00008   0.00029   0.00029  -0.00030
   84 O4      .YZ       0.00005  -0.00008  -0.00029  -0.00030   0.00029
   85 O5      .S       -0.00039   0.00123   0.00002  -0.00002   0.00002
   86 O5      .S        0.00079  -0.00292   0.00015  -0.00015   0.00015
   87 O5      .X       -0.00079   0.00290  -0.00038   0.00018  -0.00038
   88 O5      .Y        0.00079  -0.00290   0.00038  -0.00038   0.00018
   89 O5      .Z        0.00079  -0.00290   0.00018  -0.00038   0.00038
   90 O5      .S        0.00163  -0.00432  -0.00102   0.00102  -0.00101
   91 O5      .X       -0.00075   0.00263   0.00004   0.00052   0.00004
   92 O5      .Y        0.00075  -0.00263  -0.00004   0.00004   0.00052
   93 O5      .Z        0.00075  -0.00263   0.00052   0.00004  -0.00004
   94 O5      .XX      -0.00012   0.00009   0.00022  -0.00022   0.00022
   95 O5      .YY      -0.00012   0.00009   0.00022  -0.00022   0.00022
   96 O5      .ZZ      -0.00012   0.00009   0.00022  -0.00022   0.00022
   97 O5      .XY       0.00005  -0.00008  -0.00030   0.00029  -0.00029
   98 O5      .XZ       0.00005  -0.00008  -0.00029   0.00029  -0.00030
   99 O5      .YZ      -0.00005   0.00008   0.00029  -0.00030   0.00029
                           6         7         8         9        10
                           O         O         O         O         O    
     Eigenvalues --  -509.72465-509.72398-509.72449-509.72412-153.59740
    1 Mn1     .S        0.00037   0.00037   0.00037   0.00037  -0.05633
    2 Mn1     .S        0.00112   0.00112   0.00112   0.00112  -0.11401
    3 Mn1     .X        0.00074  -0.00074   0.00074  -0.00074  -0.00000
    4 Mn1     .Y        0.00074  -0.00074  -0.00074   0.00074  -0.00000
    5 Mn1     .Z       -0.00074  -0.00074   0.00074   0.00074   0.00000
    6 Mn1     .S       -0.00492  -0.00493  -0.00492  -0.00493   1.12253
    7 Mn1     .X       -0.00198   0.00198  -0.00198   0.00198   0.00000
    8 Mn1     .Y       -0.00198   0.00198   0.00198  -0.00198   0.00000
    9 Mn1     .Z        0.00198   0.00198  -0.00198  -0.00198  -0.00000
   10 Mn1     .S       -0.00352  -0.00352  -0.00352  -0.00352  -0.01797
   11 Mn1     .X        0.00154  -0.00154   0.00154  -0.00154  -0.00000
   12 Mn1     .Y        0.00154  -0.00154  -0.00154   0.00154  -0.00000
   13 Mn1     .Z       -0.00154  -0.00154   0.00154   0.00154   0.00000
   14 Mn1     .S       -0.00358  -0.00358  -0.00358  -0.00358  -0.01358
   15 Mn1     .X        0.00066  -0.00066   0.00066  -0.00066   0.00000
   16 Mn1     .Y        0.00066  -0.00066  -0.00066   0.00066   0.00000
   17 Mn1     .Z       -0.00066  -0.00066   0.00066   0.00066  -0.00000
   18 Mn1     .XX       0.00009   0.00009   0.00009   0.00009   0.01388
   19 Mn1     .YY       0.00009   0.00009   0.00009   0.00009   0.01388
   20 Mn1     .ZZ       0.00009   0.00009   0.00010   0.00009   0.01388
   21 Mn1     .XY      -0.00231  -0.00231   0.00232   0.00231   0.00001
   22 Mn1     .XZ       0.00231  -0.00231  -0.00231   0.00231  -0.00001
   23 Mn1     .YZ       0.00231  -0.00232   0.00232  -0.00231  -0.00001
   24 Mn1     .XX      -0.00111  -0.00111  -0.00111  -0.00111   0.01735
   25 Mn1     .YY      -0.00111  -0.00111  -0.00111  -0.00111   0.01735
   26 Mn1     .ZZ      -0.00111  -0.00111  -0.00110  -0.00111   0.01735
   27 Mn1     .XY      -0.00177  -0.00176   0.00177   0.00176   0.00001
   28 Mn1     .XZ       0.00177  -0.00177  -0.00177   0.00176  -0.00001
   29 Mn1     .YZ       0.00177  -0.00177   0.00177  -0.00177  -0.00001
   30 Mn1     .XXX     -0.00011   0.00011  -0.00011   0.00011  -0.00000
   31 Mn1     .YYY      0.00044  -0.00044  -0.00044   0.00044  -0.00000
   32 Mn1     .ZZZ      0.00044   0.00044  -0.00044  -0.00044  -0.00000
   33 Mn1     .XYY     -0.00030   0.00030  -0.00030   0.00030   0.00000
   34 Mn1     .XXY      0.00045  -0.00045  -0.00045   0.00045  -0.00000
   35 Mn1     .XXZ      0.00030   0.00030  -0.00030  -0.00030   0.00000
   36 Mn1     .XZZ      0.00030  -0.00030   0.00030  -0.00030  -0.00000
   37 Mn1     .YZZ      0.00030  -0.00030  -0.00030   0.00030  -0.00000
   38 Mn1     .YYZ      0.00030   0.00030  -0.00030  -0.00030   0.00000
   39 Mn1     .XYZ     -0.00079  -0.00079  -0.00079  -0.00079   0.00419
   40 O2      .S       -0.00011   1.01299  -0.00012  -0.00012  -0.00826
   41 O2      .S        0.00048  -0.03332   0.00048   0.00048   0.02062
   42 O2      .X       -0.00001  -0.00120  -0.00002  -0.00025  -0.02842
   43 O2      .Y       -0.00001  -0.00120  -0.00025  -0.00002  -0.02843
   44 O2      .Z       -0.00025  -0.00120  -0.00001  -0.00001  -0.02843
   45 O2      .S       -0.00040  -0.05431  -0.00040  -0.00040   0.02269
   46 O2      .X        0.00005  -0.00035   0.00004   0.00021  -0.02045
   47 O2      .Y        0.00005  -0.00035   0.00021   0.00005  -0.02045
   48 O2      .Z        0.00021  -0.00035   0.00005   0.00005  -0.02046
   49 O2      .XX      -0.00003  -0.00747  -0.00003   0.00017  -0.00062
   50 O2      .YY      -0.00003  -0.00747   0.00017  -0.00003  -0.00062
   51 O2      .ZZ       0.00017  -0.00747  -0.00003  -0.00003  -0.00062
   52 O2      .XY      -0.00007  -0.00065   0.00010   0.00010  -0.00010
   53 O2      .XZ       0.00010  -0.00065  -0.00007   0.00010  -0.00010
   54 O2      .YZ       0.00010  -0.00065   0.00010  -0.00007  -0.00010
   55 O3      .S        1.01299  -0.00013  -0.00012  -0.00012  -0.00826
   56 O3      .S       -0.03332   0.00048   0.00048   0.00048   0.02063
   57 O3      .X        0.00120   0.00002   0.00025   0.00002   0.02844
   58 O3      .Y        0.00120   0.00002   0.00002   0.00025   0.02844
   59 O3      .Z       -0.00120  -0.00025  -0.00002  -0.00001  -0.02844
   60 O3      .S       -0.05431  -0.00040  -0.00040  -0.00040   0.02271
   61 O3      .X        0.00035  -0.00005  -0.00021  -0.00004   0.02046
   62 O3      .Y        0.00035  -0.00005  -0.00004  -0.00021   0.02046
   63 O3      .Z       -0.00035   0.00021   0.00004   0.00005  -0.02046
   64 O3      .XX      -0.00747  -0.00003   0.00017  -0.00003  -0.00062
   65 O3      .YY      -0.00747  -0.00003  -0.00003   0.00017  -0.00062
   66 O3      .ZZ      -0.00747   0.00017  -0.00003  -0.00003  -0.00062
   67 O3      .XY      -0.00065  -0.00007   0.00010   0.00010  -0.00010
   68 O3      .XZ       0.00065  -0.00010  -0.00010   0.00007   0.00010
   69 O3      .YZ       0.00065  -0.00010   0.00007  -0.00010   0.00010
   70 O4      .S       -0.00012  -0.00012   1.01299  -0.00013  -0.00826
   71 O4      .S        0.00048   0.00048  -0.03332   0.00049   0.02062
   72 O4      .X        0.00025   0.00001   0.00120   0.00002   0.02843
   73 O4      .Y       -0.00002  -0.00025  -0.00121  -0.00001  -0.02843
   74 O4      .Z        0.00001   0.00001   0.00121   0.00025   0.02842
   75 O4      .S       -0.00040  -0.00040  -0.05431  -0.00040   0.02270
   76 O4      .X       -0.00021  -0.00005   0.00035  -0.00004   0.02046
   77 O4      .Y        0.00005   0.00021  -0.00035   0.00005  -0.02046
   78 O4      .Z       -0.00005  -0.00005   0.00035  -0.00021   0.02045
   79 O4      .XX       0.00017  -0.00003  -0.00747  -0.00003  -0.00062
   80 O4      .YY      -0.00003   0.00017  -0.00747  -0.00003  -0.00062
   81 O4      .ZZ      -0.00003  -0.00003  -0.00747   0.00017  -0.00062
   82 O4      .XY      -0.00010  -0.00010   0.00065   0.00007   0.00010
   83 O4      .XZ       0.00010  -0.00007  -0.00065   0.00010  -0.00010
   84 O4      .YZ       0.00007  -0.00010   0.00065  -0.00010   0.00010
   85 O5      .S       -0.00012  -0.00012  -0.00012   1.01299  -0.00826
   86 O5      .S        0.00048   0.00049   0.00049  -0.03332   0.02062
   87 O5      .X       -0.00002  -0.00025  -0.00002  -0.00120  -0.02843
   88 O5      .Y        0.00025   0.00001   0.00001   0.00121   0.02842
   89 O5      .Z        0.00002   0.00001   0.00025   0.00121   0.02843
   90 O5      .S       -0.00040  -0.00039  -0.00040  -0.05431   0.02269
   91 O5      .X        0.00004   0.00021   0.00004  -0.00035  -0.02045
   92 O5      .Y       -0.00021  -0.00005  -0.00005   0.00036   0.02045
   93 O5      .Z       -0.00004  -0.00005  -0.00021   0.00036   0.02046
   94 O5      .XX      -0.00003   0.00017  -0.00003  -0.00747  -0.00062
   95 O5      .YY       0.00017  -0.00003  -0.00003  -0.00747  -0.00062
   96 O5      .ZZ      -0.00003  -0.00003   0.00017  -0.00747  -0.00062
   97 O5      .XY      -0.00010  -0.00010   0.00007   0.00065   0.00010
   98 O5      .XZ       0.00007  -0.00010  -0.00010   0.00065   0.00010
   99 O5      .YZ       0.00010  -0.00007   0.00010  -0.00065  -0.00010
                          11        12        13        14        15
                           O         O         O         O         O    
     Eigenvalues --   -54.66034 -54.65272 -54.65004 -21.74130 -21.66791
    1 Mn1     .S       -0.00000   0.00001   0.00000  -0.00059  -0.00050
    2 Mn1     .S       -0.00001   0.00002   0.00001   0.00130   0.00156
    3 Mn1     .X       -0.00029  -0.32351   0.00001  -0.00296   0.00318
    4 Mn1     .Y       -0.00013   0.00001  -0.32351  -0.00401   0.00274
    5 Mn1     .Z       -0.32348   0.00029   0.00012   0.00320   0.00295
    6 Mn1     .S        0.00003  -0.00009  -0.00006   0.00807   0.00681
    7 Mn1     .X        0.00094   1.07328  -0.00006   0.01176  -0.01271
    8 Mn1     .Y        0.00036   0.00003   1.07332   0.01343  -0.01078
    9 Mn1     .Z        1.07326  -0.00098  -0.00035  -0.01217  -0.01202
   10 Mn1     .S        0.00008  -0.00002  -0.00012   0.08259   0.08125
   11 Mn1     .X       -0.00006  -0.04007  -0.00011   0.00582  -0.00637
   12 Mn1     .Y       -0.00021   0.00014  -0.03999   0.00151  -0.00531
   13 Mn1     .Z       -0.03994  -0.00005   0.00012  -0.00493  -0.00653
   14 Mn1     .S        0.00005  -0.00002  -0.00007   0.05103   0.05018
   15 Mn1     .X        0.00001   0.00732  -0.00000  -0.01048   0.01028
   16 Mn1     .Y       -0.00011   0.00007   0.00730  -0.01170   0.01086
   17 Mn1     .Z        0.00735  -0.00006  -0.00004   0.01127   0.00958
   18 Mn1     .XX      -0.00001  -0.00035  -0.00022  -0.00440  -0.00249
   19 Mn1     .YY       0.00002  -0.00039  -0.00012  -0.00409  -0.00235
   20 Mn1     .ZZ      -0.00003   0.00074   0.00035  -0.00046  -0.00410
   21 Mn1     .XY      -0.02698   0.00035   0.00039  -0.05332  -0.04451
   22 Mn1     .XZ       0.00042  -0.00024  -0.02679   0.05128  -0.05055
   23 Mn1     .YZ      -0.00006  -0.02692  -0.00010   0.04969  -0.04840
   24 Mn1     .XX       0.00001  -0.00024  -0.00015   0.00146   0.00233
   25 Mn1     .YY       0.00003  -0.00026  -0.00009   0.00166   0.00241
   26 Mn1     .ZZ      -0.00000   0.00043   0.00020   0.00390   0.00133
   27 Mn1     .XY      -0.00912   0.00023   0.00021  -0.02598  -0.02052
   28 Mn1     .XZ       0.00028  -0.00016  -0.00901   0.02531  -0.02420
   29 Mn1     .YZ      -0.00002  -0.00906  -0.00004   0.02375  -0.02276
   30 Mn1     .XXX     -0.00001  -0.00031  -0.00002   0.00078  -0.00112
   31 Mn1     .YYY      0.00001  -0.00001   0.00125  -0.00248   0.00269
   32 Mn1     .ZZZ     -0.00126  -0.00002  -0.00000  -0.00254  -0.00282
   33 Mn1     .XYY     -0.00002  -0.00084  -0.00002   0.00187  -0.00224
   34 Mn1     .XXY      0.00001  -0.00001   0.00125  -0.00246   0.00278
   35 Mn1     .XXZ     -0.00085  -0.00002  -0.00001  -0.00171  -0.00190
   36 Mn1     .XZZ     -0.00001   0.00086  -0.00001  -0.00164   0.00149
   37 Mn1     .YZZ      0.00001   0.00001   0.00086  -0.00174   0.00165
   38 Mn1     .YYZ     -0.00085  -0.00002  -0.00001  -0.00171  -0.00190
   39 Mn1     .XYZ      0.00001  -0.00002  -0.00001   0.00245   0.00221
   40 O2      .S        0.00506   0.00499   0.00523  -0.00040  -0.11384
   41 O2      .S       -0.01281  -0.01252  -0.01352  -0.00051   0.48471
   42 O2      .X        0.01575  -0.00983   0.01494   0.02471   0.12500
   43 O2      .Y        0.01553   0.01594  -0.00946   0.01321   0.13050
   44 O2      .Z       -0.00920   0.01604   0.01594  -0.00748   0.11682
   45 O2      .S       -0.01175  -0.01149  -0.01266   0.01376   0.57480
   46 O2      .X        0.01507  -0.00031   0.01449   0.01636   0.07555
   47 O2      .Y        0.01492   0.01518  -0.00001   0.00817   0.07950
   48 O2      .Z        0.00017   0.01527   0.01522  -0.00954   0.06963
   49 O2      .XX       0.00005  -0.00099   0.00009  -0.00059  -0.00764
   50 O2      .YY       0.00007   0.00005  -0.00100  -0.00005  -0.00789
   51 O2      .ZZ      -0.00102   0.00005   0.00005  -0.00216  -0.00729
   52 O2      .XY       0.00021  -0.00022  -0.00022   0.00008   0.00054
   53 O2      .XZ      -0.00024  -0.00023   0.00021  -0.00029   0.00081
   54 O2      .YZ      -0.00023   0.00020  -0.00025  -0.00002   0.00070
   55 O3      .S        0.00504  -0.00507  -0.00507  -0.11382   0.00197
   56 O3      .S       -0.01273   0.01284   0.01290   0.48524  -0.01030
   57 O3      .X       -0.01554  -0.00976   0.01574  -0.11755  -0.01926
   58 O3      .Y       -0.01586   0.01599  -0.00896  -0.12957  -0.01426
   59 O3      .Z       -0.00956  -0.01578  -0.01584   0.12207  -0.01532
   60 O3      .S       -0.01178   0.01186   0.01178   0.57424   0.00106
   61 O3      .X       -0.01487  -0.00027   0.01504  -0.06959  -0.01275
   62 O3      .Y       -0.01509   0.01521   0.00032  -0.07816  -0.00916
   63 O3      .Z       -0.00014  -0.01505  -0.01510   0.07282  -0.01468
   64 O3      .XX       0.00008   0.00099  -0.00005  -0.00718  -0.00033
   65 O3      .YY       0.00005  -0.00004   0.00102  -0.00774  -0.00010
   66 O3      .ZZ      -0.00100  -0.00007  -0.00005  -0.00745  -0.00159
   67 O3      .XY       0.00021   0.00024   0.00025   0.00070  -0.00001
   68 O3      .XZ       0.00023  -0.00022   0.00020  -0.00083   0.00005
   69 O3      .YZ       0.00024   0.00020  -0.00024  -0.00055  -0.00005
   70 O4      .S       -0.00506  -0.00499   0.00526   0.00042   0.00066
   71 O4      .S        0.01279   0.01253  -0.01369  -0.00414  -0.00447
   72 O4      .X        0.01546  -0.00910  -0.01562   0.01070  -0.02220
   73 O4      .Y       -0.01619  -0.01571  -0.00974   0.01587  -0.02029
   74 O4      .Z       -0.00967   0.01537  -0.01593  -0.02159  -0.02306
   75 O4      .S        0.01186   0.01143  -0.01280   0.00985   0.00748
   76 O4      .X        0.01483   0.00025  -0.01497   0.01151  -0.01441
   77 O4      .Y       -0.01535  -0.01506  -0.00023   0.01043  -0.01897
   78 O4      .Z       -0.00021   0.01479  -0.01520  -0.01451  -0.01494
   79 O4      .XX      -0.00008   0.00104   0.00007  -0.00202  -0.00029
   80 O4      .YY      -0.00004  -0.00005  -0.00098  -0.00023  -0.00144
   81 O4      .ZZ       0.00099  -0.00007   0.00005  -0.00053  -0.00037
   82 O4      .XY       0.00020  -0.00024   0.00023  -0.00002   0.00001
   83 O4      .XZ       0.00022   0.00023   0.00019  -0.00019  -0.00013
   84 O4      .YZ      -0.00024   0.00022   0.00024  -0.00001   0.00002
   85 O5      .S       -0.00519   0.00523  -0.00518  -0.00026   0.00069
   86 O5      .S        0.01340  -0.01355   0.01330  -0.00006  -0.00488
   87 O5      .X       -0.01574  -0.00945  -0.01528   0.01330  -0.01867
   88 O5      .Y        0.01506  -0.01530  -0.00994   0.01330  -0.02353
   89 O5      .Z       -0.00915  -0.01640   0.01560  -0.01484  -0.02072
   90 O5      .S        0.01248  -0.01257   0.01247   0.01134   0.00757
   91 O5      .X       -0.01507  -0.00002  -0.01473   0.00816  -0.01756
   92 O5      .Y        0.01459  -0.01474  -0.00036   0.01380  -0.01561
   93 O5      .Z        0.00021  -0.01554   0.01497  -0.00942  -0.01336
   94 O5      .XX      -0.00006  -0.00100  -0.00007  -0.00004  -0.00153
   95 O5      .YY      -0.00009   0.00009   0.00098  -0.00183  -0.00037
   96 O5      .ZZ       0.00102   0.00003  -0.00007  -0.00004  -0.00039
   97 O5      .XY       0.00021   0.00022  -0.00022  -0.00012   0.00003
   98 O5      .XZ      -0.00025   0.00026   0.00021  -0.00028   0.00001
   99 O5      .YZ       0.00023   0.00019   0.00022   0.00007  -0.00012
                          16        17        18        19        20
                           O         O         O         O         O    
     Eigenvalues --   -21.81131 -21.82293 -11.30731 -11.39825 -11.33930
    1 Mn1     .S       -0.00064  -0.00044   0.00556   0.00577  -0.00577
    2 Mn1     .S        0.00110   0.00175   0.02184   0.02268  -0.02267
    3 Mn1     .X       -0.00358   0.00342  -0.01238  -0.01429  -0.01207
    4 Mn1     .Y        0.00341  -0.00283   0.01138  -0.01368   0.01244
    5 Mn1     .Z       -0.00268  -0.00332   0.01326  -0.01262  -0.01453
    6 Mn1     .S        0.00864   0.00597  -0.07687  -0.07974   0.07974
    7 Mn1     .X        0.01320  -0.01217   0.03009   0.03256   0.02890
    8 Mn1     .Y       -0.01155   0.01085  -0.02785   0.03175  -0.02983
    9 Mn1     .Z        0.01140   0.01186  -0.03172   0.02949   0.03276
   10 Mn1     .S        0.08103   0.08082   0.06996   0.07317  -0.07277
   11 Mn1     .X        0.00440  -0.00327  -0.02659  -0.03585  -0.02697
   12 Mn1     .Y       -0.00184   0.00482   0.02401  -0.03297   0.02767
   13 Mn1     .Z        0.00730   0.00327   0.02969  -0.02994  -0.03732
   14 Mn1     .S        0.05007   0.04990   0.04185   0.04379  -0.04354
   15 Mn1     .X       -0.01014   0.01099   0.02666   0.02137   0.02268
   16 Mn1     .Y        0.01146  -0.01140  -0.02362   0.02307  -0.02493
   17 Mn1     .Z       -0.01096  -0.01070  -0.02481   0.02107   0.02123
   18 Mn1     .XX      -0.00478  -0.00316  -0.01560  -0.01001   0.00688
   19 Mn1     .YY      -0.00445  -0.00368  -0.01584  -0.01000   0.00690
   20 Mn1     .ZZ       0.00054  -0.00215   0.01412   0.00198   0.00421
   21 Mn1     .XY       0.05436   0.04680   0.22254  -0.19653  -0.20871
   22 Mn1     .XZ      -0.05016   0.05372   0.20364  -0.21458   0.21974
   23 Mn1     .YZ       0.04509  -0.04802  -0.23012  -0.20781  -0.20245
   24 Mn1     .XX       0.00131   0.00172  -0.02448  -0.02157   0.01965
   25 Mn1     .YY       0.00151   0.00140  -0.02463  -0.02156   0.01966
   26 Mn1     .ZZ       0.00459   0.00234  -0.00615  -0.01418   0.01800
   27 Mn1     .XY       0.02617   0.02233   0.12997  -0.11424  -0.12039
   28 Mn1     .XZ      -0.02460   0.02620   0.11916  -0.12455   0.12850
   29 Mn1     .YZ       0.02118  -0.02293  -0.13489  -0.12015  -0.11814
   30 Mn1     .XXX      0.00040  -0.00072   0.00176   0.00098   0.00169
   31 Mn1     .YYY      0.00251  -0.00255   0.00625  -0.00648   0.00684
   32 Mn1     .ZZZ      0.00263   0.00269  -0.00694   0.00604   0.00618
   33 Mn1     .XYY      0.00158  -0.00187   0.00480   0.00367   0.00430
   34 Mn1     .XXY      0.00252  -0.00259   0.00625  -0.00645   0.00699
   35 Mn1     .XXZ      0.00176   0.00183  -0.00466   0.00404   0.00415
   36 Mn1     .XZZ     -0.00209   0.00182  -0.00487  -0.00471  -0.00406
   37 Mn1     .YZZ      0.00170  -0.00166   0.00429  -0.00448   0.00438
   38 Mn1     .YYZ      0.00176   0.00183  -0.00466   0.00404   0.00415
   39 Mn1     .XYZ      0.00253   0.00206  -0.01257  -0.01303   0.01304
   40 O2      .S        0.00070   0.00091   0.00021   0.03019  -0.00020
   41 O2      .S       -0.00404  -0.00585  -0.00142  -0.16732   0.00044
   42 O2      .X        0.00951  -0.01094  -0.00423   0.28229  -0.00480
   43 O2      .Y       -0.01238   0.01762   0.00600   0.29408   0.01247
   44 O2      .Z        0.01429   0.01632   0.02536   0.28976  -0.03034
   45 O2      .S        0.00646   0.00620  -0.00873  -0.08179   0.01020
   46 O2      .X        0.00544  -0.01181  -0.00450   0.17722  -0.00618
   47 O2      .Y       -0.01302   0.01158   0.00759   0.18560   0.01067
   48 O2      .Z        0.00901   0.01058   0.02197   0.18267  -0.02451
   49 O2      .XX       0.00014  -0.00192  -0.00072  -0.00729  -0.00207
   50 O2      .YY      -0.00178  -0.00015   0.00189  -0.00786   0.00003
   51 O2      .ZZ      -0.00003  -0.00016   0.00094  -0.00772  -0.00094
   52 O2      .XY       0.00017  -0.00009   0.00226  -0.01405  -0.00231
   53 O2      .XZ       0.00027  -0.00006   0.00142  -0.01421  -0.00032
   54 O2      .YZ      -0.00003   0.00012   0.00029  -0.01446  -0.00167
   55 O3      .S        0.00074   0.00202  -0.00306  -0.00090   0.00128
   56 O3      .S       -0.00479  -0.01128   0.01472   0.00542  -0.00696
   57 O3      .X        0.01702  -0.02214   0.00928  -0.01366  -0.02174
   58 O3      .Y       -0.00559   0.00760   0.01975  -0.00229  -0.00463
   59 O3      .Z        0.02413   0.02153   0.00921  -0.02273  -0.02101
   60 O3      .S        0.00687   0.00223   0.00313  -0.00711   0.00519
   61 O3      .X        0.01586  -0.01450   0.00149  -0.01350  -0.01599
   62 O3      .Y       -0.00313   0.00976   0.01375  -0.00543   0.00073
   63 O3      .Z        0.01657   0.01403   0.01196  -0.01642  -0.01889
   64 O3      .XX      -0.00171  -0.00030   0.00230   0.00138  -0.00021
   65 O3      .YY       0.00018  -0.00202  -0.00030   0.00193  -0.00231
   66 O3      .ZZ      -0.00058  -0.00032   0.00121   0.00036  -0.00103
   67 O3      .XY       0.00034  -0.00033   0.00319   0.00092  -0.00287
   68 O3      .XZ       0.00011   0.00019  -0.00128  -0.00242   0.00223
   69 O3      .YZ      -0.00016   0.00034  -0.00243  -0.00266   0.00088
   70 O4      .S       -0.11396   0.00230   0.00120  -0.00110  -0.02963
   71 O4      .S        0.48590  -0.01181  -0.00623   0.00462   0.16416
   72 O4      .X       -0.12016  -0.01382  -0.00870  -0.03168   0.29182
   73 O4      .Y        0.12468   0.01611   0.01014  -0.02699  -0.29542
   74 O4      .Z       -0.12022   0.01071  -0.00592  -0.02821   0.27663
   75 O4      .S        0.57470  -0.00060  -0.01288  -0.00292   0.08004
   76 O4      .X       -0.07179  -0.00894  -0.01047  -0.02536   0.18342
   77 O4      .Y        0.07490   0.01062   0.01123  -0.02113  -0.18582
   78 O4      .Z       -0.07184   0.01146  -0.00402  -0.02300   0.17271
   79 O4      .XX      -0.00733  -0.00002   0.00170   0.00084   0.00760
   80 O4      .YY      -0.00762  -0.00009   0.00149   0.00057   0.00787
   81 O4      .ZZ      -0.00741  -0.00189  -0.00141   0.00091   0.00686
   82 O4      .XY      -0.00073  -0.00014  -0.00084  -0.00210  -0.01449
   83 O4      .XZ       0.00084  -0.00007   0.00156  -0.00016   0.01403
   84 O4      .YZ      -0.00071   0.00014  -0.00160  -0.00212  -0.01407
   85 O5      .S       -0.00045  -0.11397   0.02945  -0.00011  -0.00003
   86 O5      .S       -0.00083   0.48617  -0.16190  -0.00018   0.00193
   87 O5      .X        0.02724   0.12262   0.28502  -0.02609  -0.03072
   88 O5      .Y       -0.02251  -0.12070  -0.28344  -0.03217   0.02725
   89 O5      .Z        0.01045  -0.12208  -0.28613  -0.02502  -0.01822
   90 O5      .S        0.01489   0.57408  -0.08078  -0.00709   0.00619
   91 O5      .X        0.01806   0.07347   0.17721  -0.01966  -0.02598
   92 O5      .Y       -0.01480  -0.07205  -0.17634  -0.02653   0.02368
   93 O5      .Z        0.01177  -0.07312  -0.17849  -0.02120  -0.01340
   94 O5      .XX      -0.00074  -0.00741  -0.00711   0.00047  -0.00049
   95 O5      .YY      -0.00044  -0.00734  -0.00689   0.00076  -0.00075
   96 O5      .ZZ      -0.00208  -0.00736  -0.00724   0.00077   0.00017
   97 O5      .XY       0.00018  -0.00082   0.01393  -0.00211  -0.00009
   98 O5      .XZ       0.00033  -0.00075   0.01424  -0.00210   0.00187
   99 O5      .YZ      -0.00020   0.00082  -0.01427  -0.00017  -0.00191
                          21        22        23        24        25
                           O         O         O         O         O    
     Eigenvalues --   -11.48958  -4.67704  -4.68155  -4.60746  -4.71358
    1 Mn1     .S       -0.00682  -0.00036  -0.00035   0.00041   0.00019
    2 Mn1     .S       -0.02677  -0.00137  -0.00134   0.00161   0.00077
    3 Mn1     .X       -0.01313   0.01056   0.01036   0.00586  -0.00426
    4 Mn1     .Y       -0.01365   0.01001   0.00982  -0.00542  -0.00454
    5 Mn1     .Z        0.01491   0.00090   0.00081   0.01291   0.01256
    6 Mn1     .S        0.09420   0.00491   0.00481  -0.00566  -0.00261
    7 Mn1     .X        0.02921  -0.01157  -0.01129  -0.00598   0.00343
    8 Mn1     .Y        0.03039  -0.01034  -0.01010   0.00523   0.00339
    9 Mn1     .Z       -0.03154  -0.00101  -0.00089  -0.01482  -0.01367
   10 Mn1     .S       -0.08561  -0.00371  -0.00363   0.00529   0.00299
   11 Mn1     .X       -0.03470   0.05637   0.05542   0.03231  -0.02569
   12 Mn1     .Y       -0.03591   0.05494   0.05403  -0.03063  -0.02806
   13 Mn1     .Z        0.04322   0.00467   0.00426   0.06733   0.06729
   14 Mn1     .S       -0.05121  -0.00220  -0.00216   0.00317   0.00180
   15 Mn1     .X        0.01828   0.02878   0.02831   0.01446  -0.01342
   16 Mn1     .Y        0.01830   0.02798   0.02753  -0.01611  -0.01532
   17 Mn1     .Z       -0.01403   0.00175   0.00157   0.03287   0.03399
   18 Mn1     .XX       0.00273   0.20909  -0.22577   0.11794  -0.12786
   19 Mn1     .YY       0.00294  -0.22151   0.21200   0.12453  -0.12892
   20 Mn1     .ZZ       0.01555   0.01343   0.01476  -0.24376   0.25612
   21 Mn1     .XY       0.16713  -0.00395  -0.00338  -0.12522  -0.13309
   22 Mn1     .XZ      -0.18703  -0.11042  -0.10866   0.06535   0.06426
   23 Mn1     .YZ      -0.18284  -0.11337  -0.11160  -0.05042   0.05487
   24 Mn1     .XX       0.01991   0.12990  -0.13826   0.07163  -0.07933
   25 Mn1     .YY       0.02004  -0.13561   0.13167   0.07569  -0.07998
   26 Mn1     .ZZ       0.02781   0.00925   0.01005  -0.15139   0.15743
   27 Mn1     .XY       0.09443  -0.00292  -0.00252  -0.08540  -0.09014
   28 Mn1     .XZ      -0.10772  -0.07468  -0.07349   0.04395   0.04300
   29 Mn1     .YZ      -0.10504  -0.07660  -0.07539  -0.03511   0.03703
   30 Mn1     .XXX      0.00020   0.00727   0.00714  -0.00967   0.00935
   31 Mn1     .YYY     -0.00563  -0.00520  -0.00511   0.00305   0.00301
   32 Mn1     .ZZZ     -0.00460   0.00014   0.00011   0.00600   0.00626
   33 Mn1     .XYY      0.00253   0.00886   0.00870  -0.00753   0.00717
   34 Mn1     .XXY     -0.00512  -0.00789  -0.00776  -0.00159  -0.00151
   35 Mn1     .XXZ     -0.00309  -0.01037   0.01072   0.00386   0.00424
   36 Mn1     .XZZ     -0.00453   0.00178   0.00174  -0.01090   0.01074
   37 Mn1     .YZZ     -0.00487   0.00184   0.00180   0.01137   0.01110
   38 Mn1     .YYZ     -0.00309  -0.01037   0.01072   0.00386   0.00424
   39 Mn1     .XYZ      0.01541   0.00081   0.00080  -0.00092  -0.00042
   40 O2      .S       -0.00115  -0.00050  -0.00050  -0.00011  -0.00181
   41 O2      .S        0.00716   0.01428   0.01403   0.00727   0.00914
   42 O2      .X       -0.04460  -0.04169   0.00126  -0.03108  -0.22308
   43 O2      .Y       -0.04608  -0.00337  -0.04510  -0.00731  -0.23032
   44 O2      .Z        0.01866   0.00553   0.00541   0.02007   0.45142
   45 O2      .S        0.01168  -0.01201  -0.01171  -0.00849   0.00684
   46 O2      .X       -0.03401  -0.04197  -0.01300  -0.02899  -0.16302
   47 O2      .Y       -0.03507  -0.01646  -0.04410  -0.00652  -0.16806
   48 O2      .Z        0.01431  -0.00424  -0.00415   0.00327   0.32614
   49 O2      .XX      -0.00016   0.00132   0.00398   0.00122   0.01043
   50 O2      .YY      -0.00006   0.00422   0.00144   0.00363   0.01086
   51 O2      .ZZ      -0.00117   0.00442   0.00433   0.00105  -0.02036
   52 O2      .XY       0.00094  -0.00030  -0.00029  -0.00171   0.01169
   53 O2      .XZ      -0.00190  -0.00243   0.00298   0.00054  -0.00571
   54 O2      .YZ      -0.00183   0.00305  -0.00240   0.00170  -0.00553
   55 O3      .S       -0.02939  -0.00268  -0.00261   0.00185   0.00319
   56 O3      .S        0.16580   0.00173   0.00159  -0.00241  -0.00234
   57 O3      .X        0.31106   0.02400  -0.01839   0.00295   0.00163
   58 O3      .Y        0.30925  -0.02153   0.02102   0.01503  -0.00343
   59 O3      .Z       -0.25167   0.00790   0.00803   0.02684  -0.01349
   60 O3      .S        0.07735   0.02484   0.02437  -0.01562  -0.02879
   61 O3      .X        0.20056   0.00328  -0.02486   0.00455   0.01355
   62 O3      .Y        0.19926  -0.02725   0.00140   0.01837   0.01012
   63 O3      .Z       -0.15764   0.01391   0.01393   0.00720  -0.02319
   64 O3      .XX       0.00894  -0.00298  -0.00024   0.00360   0.00532
   65 O3      .YY       0.00882  -0.00049  -0.00318   0.00067   0.00498
   66 O3      .ZZ       0.00640  -0.00542  -0.00535   0.00096  -0.00012
   67 O3      .XY       0.01467   0.00168   0.00167  -0.00229   0.00369
   68 O3      .XZ      -0.01351   0.00290  -0.00252  -0.00131   0.00241
   69 O3      .YZ      -0.01343  -0.00239   0.00304   0.00020   0.00253
   70 O4      .S        0.00013   0.00065   0.00064  -0.00033  -0.00056
   71 O4      .S       -0.00011  -0.00299  -0.00292  -0.01252  -0.00476
   72 O4      .X       -0.03949   0.01788   0.39629  -0.00585   0.00046
   73 O4      .Y       -0.05006   0.01256   0.38976   0.00626   0.03152
   74 O4      .Z        0.05771   0.00409   0.00290  -0.04674   0.01059
   75 O4      .S        0.00771  -0.00250  -0.00253   0.01879   0.01117
   76 O4      .X       -0.03140   0.00650   0.28672  -0.01586  -0.00169
   77 O4      .Y       -0.03678   0.00392   0.28317   0.01635   0.02970
   78 O4      .Z        0.04163   0.00197   0.00115  -0.04652  -0.00435
   79 O4      .XX      -0.00198   0.00133   0.01788  -0.00520  -0.00319
   80 O4      .YY      -0.00063  -0.00154  -0.01799  -0.00519  -0.00129
   81 O4      .ZZ      -0.00009  -0.00007  -0.00012  -0.00121  -0.00154
   82 O4      .XY       0.00199  -0.00013  -0.00017   0.00390  -0.00224
   83 O4      .XZ      -0.00189  -0.00138   0.00995   0.00156  -0.00151
   84 O4      .YZ      -0.00090  -0.00135   0.01002  -0.00142   0.00060
   85 O5      .S       -0.00390  -0.00018  -0.00017   0.00046  -0.00062
   86 O5      .S        0.01791   0.00081   0.00081  -0.00303  -0.00418
   87 O5      .X       -0.05267   0.39206   0.00668   0.23499   0.03717
   88 O5      .Y       -0.03689   0.39442   0.01021  -0.23317  -0.00573
   89 O5      .Z        0.05811   0.00628   0.00504   0.45146   0.01593
   90 O5      .S        0.02614   0.00110   0.00102  -0.00108   0.01144
   91 O5      .X       -0.03858   0.28441  -0.00076   0.17048   0.03289
   92 O5      .Y       -0.02960   0.28561   0.00136  -0.16904  -0.00525
   93 O5      .Z        0.04180   0.00384   0.00298   0.32714   0.00026
   94 O5      .XX      -0.00065  -0.01809  -0.00122  -0.01054  -0.00140
   95 O5      .YY      -0.00200   0.01783   0.00105  -0.01063  -0.00330
   96 O5      .ZZ      -0.00013   0.00012   0.00006   0.02055  -0.00109
   97 O5      .XY       0.00169  -0.00009  -0.00013   0.01166  -0.00196
   98 O5      .XZ      -0.00123   0.00993  -0.00155  -0.00561   0.00066
   99 O5      .YZ      -0.00157   0.01000  -0.00152   0.00559  -0.00156
                          26        27        28        29        30
                           O         O         O         O         V    
     Eigenvalues --    -4.01728  -4.04537  -4.15047  -3.92671   6.69575
    1 Mn1     .S       -0.00005   0.00005   0.00054   0.00032  -0.00289
    2 Mn1     .S       -0.00017   0.00020   0.00220   0.00121  -0.02290
    3 Mn1     .X       -0.01054   0.01145  -0.00780   0.00664   0.05430
    4 Mn1     .Y        0.01105  -0.01213   0.00829   0.00715   0.04992
    5 Mn1     .Z        0.00040  -0.00030   0.01142   0.00951   0.01070
    6 Mn1     .S        0.00063  -0.00072  -0.00746  -0.00447  -0.07364
    7 Mn1     .X        0.01258  -0.01361   0.01029  -0.00912   0.03359
    8 Mn1     .Y       -0.01395   0.01553  -0.01084  -0.00980   0.03318
    9 Mn1     .Z       -0.00065   0.00063  -0.01270  -0.00970   0.03682
   10 Mn1     .S       -0.00039   0.00053   0.00862   0.00262  -0.15379
   11 Mn1     .X       -0.05379   0.05856  -0.03752   0.03105   0.51209
   12 Mn1     .Y        0.05465  -0.05943   0.04005   0.03347   0.47604
   13 Mn1     .Z        0.00158  -0.00085   0.06048   0.05248   0.17140
   14 Mn1     .S       -0.00023   0.00031   0.00519   0.00154  -0.07139
   15 Mn1     .X       -0.02290   0.02494  -0.01507   0.01148   0.02396
   16 Mn1     .Y        0.02202  -0.02392   0.01406   0.01132   0.02070
   17 Mn1     .Z        0.00004   0.00042   0.02846   0.02769  -0.00432
   18 Mn1     .XX       0.18269   0.16779   0.10010  -0.09988  -0.37515
   19 Mn1     .YY      -0.17894  -0.16738   0.10134  -0.10014   0.26926
   20 Mn1     .ZZ      -0.00363  -0.00056  -0.20333   0.19919  -0.00512
   21 Mn1     .XY       0.00278  -0.00485  -0.10472  -0.11160   0.04076
   22 Mn1     .XZ      -0.06995   0.07599  -0.03604  -0.02752  -0.13146
   23 Mn1     .YZ       0.07612  -0.08302   0.04742  -0.03127  -0.14599
   24 Mn1     .XX       0.11277   0.10332   0.06033  -0.06250  -0.23412
   25 Mn1     .YY      -0.11021  -0.10334   0.06109  -0.06265   0.26008
   26 Mn1     .ZZ      -0.00211  -0.00049  -0.12677   0.12191   0.04962
   27 Mn1     .XY       0.00153  -0.00289  -0.07201  -0.07493   0.02381
   28 Mn1     .XZ      -0.05040   0.05478  -0.02766  -0.02162  -0.13244
   29 Mn1     .YZ       0.05378  -0.05866   0.03419  -0.02334  -0.15006
   30 Mn1     .XXX     -0.00760   0.00801   0.01163  -0.01334   0.02601
   31 Mn1     .YYY     -0.00394   0.00429  -0.00229  -0.00188  -0.01234
   32 Mn1     .ZZZ     -0.00012   0.00021   0.00510   0.00509   0.00078
   33 Mn1     .XYY     -0.00856   0.00910   0.00922  -0.01112   0.02952
   34 Mn1     .XXY     -0.00715   0.00770   0.00307   0.00402  -0.02587
   35 Mn1     .XXZ      0.01355   0.01278   0.00345   0.00340   0.01512
   36 Mn1     .XZZ     -0.00325   0.00330   0.01276  -0.01354   0.01074
   37 Mn1     .YZZ      0.00374  -0.00390  -0.01229  -0.01308   0.01862
   38 Mn1     .YYZ      0.01355   0.01278   0.00345   0.00340   0.01512
   39 Mn1     .XYZ      0.00011  -0.00012  -0.00120  -0.00075   0.00934
   40 O2      .S        0.00022  -0.00029  -0.00042  -0.00002   0.03231
   41 O2      .S       -0.00035   0.00068   0.00788   0.01261  -0.16434
   42 O2      .X        0.00027   0.41615  -0.00639   0.03500   0.05402
   43 O2      .Y       -0.01390  -0.40025  -0.03143   0.04545  -0.17787
   44 O2      .Z        0.00025  -0.00110   0.02437  -0.14200   0.03950
   45 O2      .S       -0.00210   0.00245  -0.00602  -0.01693  -0.19025
   46 O2      .X        0.00564   0.30133  -0.00557   0.01642   0.01897
   47 O2      .Y       -0.01477  -0.29076  -0.02912   0.02404  -0.15327
   48 O2      .Z        0.00049  -0.00134   0.00772  -0.11381   0.01431
   49 O2      .XX       0.00081  -0.01801   0.00357   0.00319   0.00298
   50 O2      .YY      -0.00031   0.01747   0.00102   0.00284   0.01154
   51 O2      .ZZ      -0.00001   0.00007   0.00067   0.00464   0.00956
   52 O2      .XY       0.00024  -0.00032  -0.00122   0.00208   0.00636
   53 O2      .XZ      -0.00109  -0.00973   0.00169   0.00006   0.00447
   54 O2      .YZ       0.00143   0.00941   0.00011  -0.00013   0.00943
   55 O3      .S       -0.00171   0.00177   0.00073   0.00231  -0.01110
   56 O3      .S        0.00753  -0.00775   0.00164  -0.01332   0.05216
   57 O3      .X       -0.41035   0.02692   0.02140   0.20516  -0.26815
   58 O3      .Y        0.40499  -0.02060  -0.00351   0.21523  -0.01153
   59 O3      .Z       -0.00347   0.00431   0.03012   0.49247  -0.03588
   60 O3      .S        0.00822  -0.00861  -0.00923  -0.00544   0.09833
   61 O3      .X       -0.29787   0.01431   0.02264   0.15108  -0.22668
   62 O3      .Y        0.29430  -0.00998  -0.00082   0.15843  -0.03438
   63 O3      .Z       -0.00276   0.00323   0.01113   0.35567  -0.01369
   64 O3      .XX      -0.01777   0.00209   0.00069   0.00916  -0.01740
   65 O3      .YY       0.01750  -0.00175   0.00322   0.00950  -0.00909
   66 O3      .ZZ       0.00012  -0.00012   0.00050  -0.02086  -0.01393
   67 O3      .XY      -0.00003  -0.00000  -0.00170   0.00960  -0.01003
   68 O3      .XZ       0.00954   0.00060   0.00037   0.00673   0.01228
   69 O3      .YZ      -0.00972  -0.00045  -0.00118   0.00654   0.00732
   70 O4      .S        0.00060  -0.00077  -0.00043   0.00140  -0.00257
   71 O4      .S        0.00941  -0.00983   0.00381  -0.01114   0.00806
   72 O4      .X        0.10803   0.01599  -0.22359  -0.05215  -0.26707
   73 O4      .Y        0.03025   0.10015   0.22989  -0.03260  -0.25641
   74 O4      .Z       -0.00279   0.00221   0.47575   0.01170  -0.00002
   75 O4      .S       -0.01908   0.02143  -0.00173  -0.00135   0.02062
   76 O4      .X        0.08736   0.00046  -0.16196  -0.04370  -0.22623
   77 O4      .Y        0.01180   0.08247   0.16665  -0.02258  -0.20713
   78 O4      .Z        0.00335  -0.00435   0.34522  -0.00115  -0.00690
   79 O4      .XX       0.00350  -0.00292  -0.00955  -0.00161  -0.01804
   80 O4      .YY       0.00245  -0.00366  -0.00974  -0.00152   0.00887
   81 O4      .ZZ       0.00420  -0.00454   0.02109  -0.00081  -0.00272
   82 O4      .XY      -0.00021   0.00029   0.01056  -0.00175   0.00254
   83 O4      .XZ      -0.00044  -0.00264   0.00617  -0.00054  -0.00890
   84 O4      .YZ      -0.00261  -0.00036  -0.00600   0.00093  -0.00572
   85 O5      .S        0.00044  -0.00030   0.00059  -0.00028  -0.00131
   86 O5      .S       -0.01440   0.01482  -0.01907  -0.00468   0.00179
   87 O5      .X       -0.01952  -0.10872  -0.00619  -0.02313  -0.02273
   88 O5      .Y       -0.10718  -0.02080   0.01043  -0.06084  -0.01056
   89 O5      .Z        0.00737  -0.00070  -0.13720   0.01304  -0.00109
   90 O5      .S        0.01496  -0.01700   0.01935   0.00825   0.01127
   91 O5      .X       -0.00393  -0.08863   0.00496  -0.01595  -0.03099
   92 O5      .Y       -0.08659  -0.00430  -0.00180  -0.04976  -0.02663
   93 O5      .Z        0.00006   0.00519  -0.11024   0.00018  -0.00812
   94 O5      .XX      -0.00282   0.00384  -0.00437  -0.00195  -0.00301
   95 O5      .YY      -0.00364   0.00284  -0.00427  -0.00201  -0.00256
   96 O5      .ZZ      -0.00396   0.00461  -0.00484  -0.00089  -0.00311
   97 O5      .XY       0.00062  -0.00049   0.00315  -0.00151   0.00094
   98 O5      .XZ       0.00274   0.00010   0.00047   0.00108   0.00130
   99 O5      .YZ       0.00048   0.00272  -0.00037  -0.00067  -0.00072
                          31        32        33        34        35
                           V         V         V         V         V    
     Eigenvalues --     6.17280   6.71842   7.50595   9.37201  11.10031
    1 Mn1     .S       -0.00277   0.00176   0.00330   0.01318  -0.01459
    2 Mn1     .S       -0.02190   0.01397   0.02612   0.10436  -0.11552
    3 Mn1     .X        0.05094   0.00441   0.02359   0.00141   0.00434
    4 Mn1     .Y        0.04699  -0.01486  -0.02136  -0.01568   0.00177
    5 Mn1     .Z        0.01012   0.07182   0.07065   0.00746  -0.01772
    6 Mn1     .S       -0.07045   0.04395   0.08499   0.34724  -0.38488
    7 Mn1     .X        0.03204   0.03357   0.03577  -0.13990  -0.10496
    8 Mn1     .Y        0.03099   0.00151  -0.01237   0.08581   0.13468
    9 Mn1     .Z        0.03384   0.05761   0.06568   0.14707  -0.16258
   10 Mn1     .S       -0.14719   0.09503   0.17474   0.68994  -0.76319
   11 Mn1     .X        0.48158   0.11365   0.27190  -0.31534  -0.21035
   12 Mn1     .Y        0.44755  -0.11511  -0.19944   0.07508   0.32861
   13 Mn1     .Z        0.15981   0.70797   0.71747   0.40290  -0.52112
   14 Mn1     .S       -0.06833   0.04570   0.07959   0.30177  -0.33310
   15 Mn1     .X        0.02225  -0.00720   0.00418   0.04649   0.03689
   16 Mn1     .Y        0.01952  -0.00966  -0.00949  -0.03880  -0.04171
   17 Mn1     .Z       -0.00378   0.02719   0.02410  -0.04229   0.03979
   18 Mn1     .XX       0.29390  -0.16950   0.22921   0.15458  -0.19391
   19 Mn1     .YY      -0.39269  -0.17055   0.23115   0.15136  -0.19345
   20 Mn1     .ZZ      -0.00736   0.40639  -0.33253   0.21513  -0.19017
   21 Mn1     .XY       0.03636  -0.16498  -0.14137   0.29482  -0.29103
   22 Mn1     .XZ      -0.12445   0.06508   0.06018   0.24758   0.29144
   23 Mn1     .YZ      -0.13603   0.05937  -0.01400  -0.31165  -0.24702
   24 Mn1     .XX       0.27664  -0.16232   0.11430  -0.12986   0.12641
   25 Mn1     .YY      -0.24991  -0.16312   0.11579  -0.13233   0.12677
   26 Mn1     .ZZ       0.04557   0.27933  -0.31651  -0.08345   0.12926
   27 Mn1     .XY       0.02076  -0.17394  -0.15532   0.23696  -0.22304
   28 Mn1     .XZ      -0.12501   0.05976   0.06011   0.21875   0.23602
   29 Mn1     .YZ      -0.13968   0.04202  -0.02792  -0.26034  -0.20759
   30 Mn1     .XXX      0.02444   0.02280  -0.00662   0.00381   0.00186
   31 Mn1     .YYY     -0.01161   0.00447   0.00545   0.01216   0.00969
   32 Mn1     .ZZZ      0.00081   0.01732   0.01648  -0.00905   0.00659
   33 Mn1     .XYY      0.02770   0.02002  -0.00379   0.00864   0.00601
   34 Mn1     .XXY     -0.02415  -0.01763  -0.01565   0.00783   0.01986
   35 Mn1     .XXZ     -0.01475   0.01181   0.01118  -0.00618   0.00434
   36 Mn1     .XZZ      0.01019   0.02114  -0.01019  -0.00705  -0.00702
   37 Mn1     .YZZ      0.01715   0.04727   0.04593   0.01696  -0.01373
   38 Mn1     .YYZ     -0.01475   0.01181   0.01118  -0.00618   0.00434
   39 Mn1     .XYZ      0.00893  -0.00587  -0.01054  -0.04091   0.04515
   40 O2      .S        0.03037   0.01739   0.01592  -0.00890   0.00350
   41 O2      .S       -0.15457  -0.08221  -0.07461   0.05706  -0.03183
   42 O2      .X       -0.19414   0.11338  -0.09314  -0.05225  -0.04784
   43 O2      .Y        0.07702   0.15882   0.01953   0.06807   0.03411
   44 O2      .Z        0.03739  -0.29205  -0.00581  -0.00314  -0.00406
   45 O2      .S       -0.17887  -0.10576  -0.10513   0.03851  -0.00687
   46 O2      .X       -0.16489   0.08118  -0.08318  -0.05212  -0.02352
   47 O2      .Y        0.03826   0.11890   0.01029   0.04343   0.04132
   48 O2      .Z        0.01373  -0.25557  -0.03900  -0.01848   0.02056
   49 O2      .XX       0.01125  -0.00179   0.00906   0.01237  -0.00598
   50 O2      .YY       0.00235  -0.00089   0.00996   0.00454  -0.01500
   51 O2      .ZZ       0.00891   0.02406   0.01012   0.00711  -0.01000
   52 O2      .XY       0.00599  -0.00490   0.00656   0.00404  -0.00513
   53 O2      .XZ       0.00916   0.00848   0.00620   0.00534  -0.00209
   54 O2      .YZ       0.00386   0.00877   0.00628   0.00086  -0.00694
   55 O3      .S       -0.01049   0.01047   0.00901   0.00913  -0.00606
   56 O3      .S        0.04919  -0.04986  -0.04110  -0.03067   0.01463
   57 O3      .X       -0.00603  -0.08035   0.00587  -0.10043  -0.01073
   58 O3      .Y       -0.25535  -0.03571   0.12000   0.01744   0.07157
   59 O3      .Z       -0.03369  -0.32731  -0.03056   0.05447  -0.03601
   60 O3      .S        0.09263  -0.08965  -0.07565  -0.04955   0.03755
   61 O3      .X       -0.02949  -0.04817   0.01174  -0.06056  -0.02861
   62 O3      .Y       -0.21487  -0.01113   0.10628   0.03319   0.03653
   63 O3      .Z       -0.01286  -0.27198  -0.04984   0.02489  -0.00699
   64 O3      .XX      -0.00789   0.00978   0.01374   0.00603  -0.01666
   65 O3      .YY      -0.01704   0.00878   0.01285   0.01378  -0.00760
   66 O3      .ZZ      -0.01310   0.01552   0.00450   0.00621  -0.00660
   67 O3      .XY      -0.00941   0.00548   0.01020   0.00421  -0.00609
   68 O3      .XZ       0.00653  -0.00998  -0.00577  -0.00006   0.00572
   69 O3      .YZ       0.01184  -0.00964  -0.00571  -0.00449   0.00085
   70 O4      .S       -0.00231  -0.02576  -0.03444  -0.01307   0.07798
   71 O4      .S        0.00702   0.13069   0.17449   0.07759  -0.38681
   72 O4      .X       -0.00474  -0.01727   0.09235  -0.03453  -0.32243
   73 O4      .Y        0.00439   0.05839  -0.09223   0.05965   0.31422
   74 O4      .Z       -0.00145   0.01582  -0.24576   0.06063  -0.27615
   75 O4      .S        0.01893   0.15117   0.19995   0.06451  -0.33089
   76 O4      .X       -0.02389  -0.02556   0.05165  -0.01667  -0.25756
   77 O4      .Y       -0.00657   0.05293  -0.05587   0.03876   0.25173
   78 O4      .Z       -0.00769  -0.01291  -0.20906   0.05564  -0.22011
   79 O4      .XX      -0.00323  -0.01069  -0.00662   0.00247  -0.01857
   80 O4      .YY      -0.00538  -0.00731  -0.00401   0.00331  -0.02058
   81 O4      .ZZ      -0.00269  -0.00151  -0.01239   0.01276  -0.02131
   82 O4      .XY       0.00235   0.00797   0.00316   0.00158   0.02045
   83 O4      .XZ      -0.00078  -0.00470  -0.00832   0.00365  -0.02068
   84 O4      .YZ       0.00229   0.00345   0.00719  -0.00403   0.02160
   85 O5      .S       -0.00101  -0.01243  -0.01047  -0.06867   0.01492
   86 O5      .S        0.00053   0.06543   0.05590   0.34035  -0.08756
   87 O5      .X       -0.26610   0.04758  -0.15248  -0.29411  -0.01731
   88 O5      .Y       -0.25650  -0.00725   0.15407   0.31678   0.00945
   89 O5      .Z       -0.00312  -0.01912  -0.30003   0.29391  -0.02635
   90 O5      .S        0.00977   0.07629   0.05474   0.28006  -0.07037
   91 O5      .X       -0.21655   0.03293  -0.12745  -0.23975   0.00085
   92 O5      .Y       -0.21414  -0.00608   0.12439   0.25995  -0.00644
   93 O5      .Z       -0.00929  -0.04091  -0.25098   0.23511  -0.02542
   94 O5      .XX       0.01072  -0.00194   0.00969   0.02212  -0.00748
   95 O5      .YY      -0.01619  -0.00529   0.00719   0.02114  -0.00548
   96 O5      .ZZ      -0.00305  -0.00319  -0.01497   0.02098  -0.01059
   97 O5      .XY       0.00097   0.00409  -0.00824  -0.02189   0.00155
   98 O5      .XZ      -0.00627   0.00274   0.00388  -0.02188   0.00470
   99 O5      .YZ      -0.00838  -0.00398  -0.00494   0.02142  -0.00378
                          36        37        38        39        40
                           V         V         V         V         V    
     Eigenvalues --    12.10460  17.70483  17.01674  13.01831  13.06981
    1 Mn1     .S        0.01407   0.02158   0.00480   0.00001   0.00000
    2 Mn1     .S        0.11141   0.17009   0.03784  -0.00006  -0.00006
    3 Mn1     .X       -0.01979   0.00823   0.07839   0.00002  -0.04998
    4 Mn1     .Y       -0.01075   0.05096  -0.06657  -0.04993  -0.00003
    5 Mn1     .Z       -0.00621  -0.01865  -0.03915   0.00032   0.00000
    6 Mn1     .S        0.37047   0.59190   0.13237  -0.00044  -0.00013
    7 Mn1     .X       -0.16154   0.08980   0.16411   0.00036  -0.48474
    8 Mn1     .Y       -0.15189   0.18118  -0.11457  -0.48522  -0.00019
    9 Mn1     .Z       -0.12062  -0.11262  -0.09117   0.00345  -0.00009
   10 Mn1     .S        0.73675   1.09431   0.24271  -0.00174  -0.00131
   11 Mn1     .X       -0.53517   0.27531   1.00855   0.00098  -1.48067
   12 Mn1     .Y       -0.44047   0.82962  -0.79861  -1.48139  -0.00064
   13 Mn1     .Z       -0.33122  -0.41174  -0.52512   0.01029  -0.00018
   14 Mn1     .S        0.32263   0.43894   0.09627  -0.00138  -0.00124
   15 Mn1     .X        0.03825  -0.02494  -0.01563  -0.00106   1.61564
   16 Mn1     .Y        0.04093  -0.03258   0.00516   1.61646   0.00072
   17 Mn1     .Z        0.03470   0.02681   0.01136  -0.01126   0.00018
   18 Mn1     .XX       0.17633   0.30224   0.03849  -0.00005   0.00004
   19 Mn1     .YY       0.17661   0.30264   0.03773  -0.00005   0.00004
   20 Mn1     .ZZ       0.20305   0.28154   0.12195  -0.00005   0.00004
   21 Mn1     .XY      -0.24066  -0.16232  -0.01436   0.00124   0.00025
   22 Mn1     .XZ      -0.29523   0.16529   0.05993  -0.09401  -0.00033
   23 Mn1     .YZ      -0.27990   0.15899  -0.00711  -0.00010  -0.09307
   24 Mn1     .XX      -0.12988  -0.18046  -0.06241   0.00000   0.00015
   25 Mn1     .YY      -0.12966  -0.18016  -0.06299   0.00000   0.00015
   26 Mn1     .ZZ      -0.10940  -0.19632   0.00156   0.00000   0.00015
   27 Mn1     .XY      -0.19388  -0.13861  -0.02991   0.00011  -0.00039
   28 Mn1     .XZ      -0.23103   0.14758   0.02582  -0.04830   0.00035
   29 Mn1     .YZ      -0.21342   0.13495   0.02344   0.00038  -0.04810
   30 Mn1     .XXX     -0.01249   0.00740  -0.00746  -0.00031  -0.00781
   31 Mn1     .YYY     -0.00795   0.00273   0.00492   0.02056   0.00002
   32 Mn1     .ZZZ      0.00743   0.00463  -0.00062  -0.00395   0.00040
   33 Mn1     .XYY     -0.00852   0.00424  -0.00515  -0.00077  -0.02082
   34 Mn1     .XXY      0.00341   0.00469   0.00549   0.02065  -0.00005
   35 Mn1     .XXZ      0.00495   0.00307  -0.00060  -0.00265   0.00027
   36 Mn1     .XZZ     -0.01649   0.01138  -0.00971   0.00072   0.02068
   37 Mn1     .YZZ     -0.02816  -0.00206   0.00222   0.01386   0.00015
   38 Mn1     .YYZ      0.00495   0.00307  -0.00060  -0.00265   0.00027
   39 Mn1     .XYZ     -0.04369  -0.06057  -0.01334   0.00093   0.00087
   40 O2      .S       -0.08408  -0.00878  -0.01642   0.00363   0.00361
   41 O2      .S        0.41668   0.04829   0.08180  -0.01276  -0.01290
   42 O2      .X       -0.28255  -0.01211  -0.20637   0.02840   0.08519
   43 O2      .Y       -0.30547  -0.10645   0.12374   0.08484   0.02887
   44 O2      .Z       -0.31840   0.00979   0.02040   0.02800   0.02881
   45 O2      .S        0.36654   0.02956   0.08734   0.10469   0.10596
   46 O2      .X       -0.22205  -0.03572  -0.18052  -0.22078  -0.24191
   47 O2      .Y       -0.24101  -0.11764   0.10763  -0.24081  -0.22266
   48 O2      .Z       -0.24715  -0.01242   0.02337  -0.22052  -0.22272
   49 O2      .XX       0.01956   0.01177   0.00406   0.04093   0.02735
   50 O2      .YY       0.01935   0.01254  -0.00224   0.02780   0.04109
   51 O2      .ZZ       0.01527   0.01460  -0.00004   0.04087   0.04112
   52 O2      .XY       0.02068   0.00925   0.00150   0.03075   0.03052
   53 O2      .XZ       0.01888   0.01058   0.00277   0.04294   0.03055
   54 O2      .YZ       0.01885   0.01097  -0.00022   0.03065   0.04355
   55 O3      .S        0.00703  -0.09491  -0.03236  -0.00382  -0.00364
   56 O3      .S       -0.01942   0.46787   0.15972   0.01268   0.01278
   57 O3      .X       -0.03489   0.30256  -0.09079   0.02834   0.08510
   58 O3      .Y       -0.05760   0.20853   0.23876   0.08478   0.02878
   59 O3      .Z        0.01091  -0.27190  -0.03097  -0.02878  -0.02875
   60 O3      .S       -0.04229   0.44935   0.16618  -0.10518  -0.10558
   61 O3      .X       -0.00628   0.24482  -0.08770  -0.22404  -0.24218
   62 O3      .Y       -0.02506   0.16314   0.20008  -0.24407  -0.22293
   63 O3      .Z       -0.01012  -0.21872  -0.01612   0.22453   0.22289
   64 O3      .XX       0.00630   0.01378  -0.00304  -0.04213  -0.02758
   65 O3      .YY       0.00653   0.01303   0.00330  -0.02900  -0.04133
   66 O3      .ZZ       0.01733   0.01302   0.00115  -0.04232  -0.04131
   67 O3      .XY       0.00023   0.01670   0.00192  -0.03144  -0.03065
   68 O3      .XZ      -0.00581  -0.01670  -0.00101   0.04396   0.03063
   69 O3      .YZ      -0.00585  -0.01632  -0.00401   0.03167   0.04363
   70 O4      .S       -0.00256  -0.00025  -0.04497   0.00381  -0.00363
   71 O4      .S        0.02694   0.00636   0.22316  -0.01282   0.01263
   72 O4      .X       -0.00140  -0.00293  -0.06666  -0.02845   0.08502
   73 O4      .Y       -0.00912  -0.08274   0.04846   0.08485  -0.02861
   74 O4      .Z       -0.01735   0.00320   0.22335  -0.02885   0.02865
   75 O4      .S        0.00063  -0.01719   0.24910   0.10542  -0.10560
   76 O4      .X        0.02321   0.02194  -0.07300   0.22421  -0.24208
   77 O4      .Y       -0.01808  -0.10272   0.05712  -0.24403   0.22283
   78 O4      .Z        0.00357   0.03166   0.17846   0.22450  -0.22283
   79 O4      .XX       0.01035   0.01632  -0.00644   0.04212  -0.02761
   80 O4      .YY       0.01345   0.01484  -0.00743   0.02888  -0.04134
   81 O4      .ZZ       0.00779   0.01147   0.00010   0.04221  -0.04133
   82 O4      .XY      -0.00635  -0.01218   0.00365  -0.03148   0.03064
   83 O4      .XZ       0.00311   0.01061  -0.00002   0.04401  -0.03065
   84 O4      .YZ      -0.00528  -0.00951   0.00054  -0.03159   0.04365
   85 O5      .S       -0.00736  -0.03459   0.06277  -0.00369   0.00359
   86 O5      .S        0.05070   0.17551  -0.31025   0.01249  -0.01290
   87 O5      .X        0.00329  -0.08324   0.00523  -0.02825   0.08519
   88 O5      .Y       -0.01359  -0.00212  -0.02402   0.08464  -0.02878
   89 O5      .Z       -0.00667   0.09830  -0.06371   0.02780  -0.02884
   90 O5      .S        0.02980   0.17209  -0.35888  -0.10448   0.10591
   91 O5      .X       -0.00331  -0.08459  -0.03265   0.22156  -0.24171
   92 O5      .Y        0.00859   0.00403   0.01626  -0.24137   0.22246
   93 O5      .Z        0.01223   0.10043  -0.02266  -0.22110   0.22236
   94 O5      .XX       0.01069   0.00811   0.01395  -0.04145   0.02729
   95 O5      .YY       0.00759   0.00960   0.01487  -0.02821   0.04103
   96 O5      .ZZ       0.00831   0.00951   0.01294  -0.04129   0.04098
   97 O5      .XY      -0.00414  -0.00854  -0.00844   0.03104  -0.03050
   98 O5      .XZ      -0.00457  -0.00804  -0.00757   0.04323  -0.03046
   99 O5      .YZ       0.00240   0.00915   0.00806  -0.03081   0.04346
                          41        42        43        44        45
                           V         V         V         V         V    
     Eigenvalues --    13.24760  32.91782  32.91794  32.91773  32.92160
    1 Mn1     .S        0.00001   0.00000  -0.00000  -0.00000   0.00000
    2 Mn1     .S       -0.00007  -0.00001   0.00000   0.00000  -0.00001
    3 Mn1     .X       -0.00000   0.01051  -0.01820  -0.01820   0.01257
    4 Mn1     .Y        0.00081  -0.02102  -0.00000   0.01820  -0.00829
    5 Mn1     .Z        0.04937  -0.01051  -0.01820  -0.00000  -0.02087
    6 Mn1     .S       -0.00027  -0.00007   0.00002   0.00001  -0.00005
    7 Mn1     .X        0.00003   0.06811  -0.11795  -0.11795   0.08130
    8 Mn1     .Y       -0.00033  -0.13621  -0.00003   0.11794  -0.05392
    9 Mn1     .Z        0.48577  -0.06808  -0.11796  -0.00002  -0.13524
   10 Mn1     .S       -0.00153  -0.00019   0.00005   0.00005  -0.00013
   11 Mn1     .X        0.00007   0.23892  -0.41374  -0.41371   0.28534
   12 Mn1     .Y        0.00486  -0.47775  -0.00009   0.41371  -0.18896
   13 Mn1     .Z        1.47878  -0.23881  -0.41377  -0.00006  -0.47436
   14 Mn1     .S       -0.00138  -0.00005   0.00001   0.00002  -0.00003
   15 Mn1     .X       -0.00005  -0.02527   0.04376   0.04376  -0.03012
   16 Mn1     .Y       -0.00509   0.05053   0.00001  -0.04375   0.02006
   17 Mn1     .Z       -1.61373   0.02526   0.04376   0.00000   0.05017
   18 Mn1     .XX       0.00000   0.00827  -0.01433   0.01434   0.00945
   19 Mn1     .YY       0.00000  -0.01657  -0.00000  -0.01434   0.00698
   20 Mn1     .ZZ       0.00000   0.00827   0.01434  -0.00002  -0.01644
   21 Mn1     .XY       0.09854  -0.00100  -0.00173   0.00000  -0.00197
   22 Mn1     .XZ      -0.00663  -0.00199   0.00001   0.00173  -0.00097
   23 Mn1     .YZ      -0.00036   0.00100  -0.00173  -0.00173   0.00100
   24 Mn1     .XX       0.00012  -0.06325   0.10956  -0.10959  -0.07430
   25 Mn1     .YY       0.00012   0.12654   0.00001   0.10955  -0.05129
   26 Mn1     .ZZ       0.00012  -0.06322  -0.10959   0.00003   0.12561
   27 Mn1     .XY       0.04970   0.01877   0.03253  -0.00002   0.03726
   28 Mn1     .XZ      -0.00138   0.03754  -0.00000  -0.03253   0.01543
   29 Mn1     .YZ       0.00042  -0.01878   0.03251   0.03253  -0.02183
   30 Mn1     .XXX      0.00001  -0.01444  -0.00530   0.00988   0.01025
   31 Mn1     .YYY     -0.08194  -0.01057  -0.00000   0.00916  -0.00386
   32 Mn1     .ZZZ     -0.03829   0.00529   0.00916   0.00001   0.01050
   33 Mn1     .XYY      0.00023  -0.01528  -0.00064   0.01293   0.00619
   34 Mn1     .XXY     -0.08243  -0.01064   0.00678   0.01260   0.00245
   35 Mn1     .XXZ     -0.02568   0.01528  -0.00063   0.01356   0.00506
   36 Mn1     .XZZ     -0.00043  -0.00819  -0.01293   0.00065   0.01511
   37 Mn1     .YZZ     -0.05502  -0.00710  -0.01357  -0.00062  -0.01525
   38 Mn1     .YYZ     -0.02568   0.01528  -0.00063   0.01356   0.00506
   39 Mn1     .XYZ      0.00095   0.00001  -0.00000  -0.00000   0.00000
   40 O2      .S       -0.00349  -0.00869  -0.01506  -0.00000  -0.00686
   41 O2      .S        0.01281   0.05628   0.09745  -0.00003   0.04422
   42 O2      .X       -0.02924  -0.01204  -0.01211  -0.64932  -0.01052
   43 O2      .Y       -0.02924  -0.00447  -0.01647   0.64941   0.00057
   44 O2      .Z       -0.08572   0.00072   0.00126  -0.00008  -0.00243
   45 O2      .S       -0.10699   0.05466   0.09493   0.00007   0.04351
   46 O2      .X        0.22354  -0.06393   0.02402   0.84943  -0.06628
   47 O2      .Y        0.21852   0.05282  -0.04338  -0.84958  -0.00372
   48 O2      .Z        0.24712  -0.00503  -0.00879   0.00008   0.05750
   49 O2      .XX      -0.04081   0.00055   0.00088   0.09863   0.00041
   50 O2      .YY      -0.03650   0.00050   0.00091  -0.09871   0.00210
   51 O2      .ZZ      -0.03077   0.00287   0.00496   0.00007   0.00034
   52 O2      .XY      -0.03865  -0.00022  -0.00037  -0.00013   0.00229
   53 O2      .XZ      -0.03507   0.00269   0.00267   0.09413  -0.00014
   54 O2      .YZ      -0.02999   0.00096   0.00367  -0.09400   0.00041
   55 O3      .S       -0.00529   0.00000   0.00000  -0.00000  -0.01040
   56 O3      .S        0.01081   0.00005   0.00000   0.00001   0.06752
   57 O3      .X        0.02250   0.37501  -0.64931   0.00439  -0.00084
   58 O3      .Y        0.02251  -0.74982  -0.00010  -0.00438   0.01341
   59 O3      .Z       -0.07893  -0.37483  -0.64942   0.00000  -0.00647
   60 O3      .S       -0.09242  -0.00013  -0.00001   0.00002   0.06519
   61 O3      .X       -0.21950  -0.49062   0.84944   0.06739   0.00630
   62 O3      .Y       -0.22452   0.98089   0.00014  -0.06738   0.06066
   63 O3      .Z        0.24303   0.49038   0.84958  -0.00002   0.04739
   64 O3      .XX      -0.04779   0.05699  -0.09866   0.00003   0.00360
   65 O3      .YY      -0.05211  -0.11392  -0.00002  -0.00003   0.00066
   66 O3      .ZZ      -0.03766   0.05696   0.09868   0.00000   0.00064
   67 O3      .XY      -0.04780  -0.05430  -0.09408   0.00000   0.00308
   68 O3      .XZ       0.03398  -0.10861  -0.00002  -0.00100  -0.00152
   69 O3      .YZ       0.03906   0.05432  -0.09406   0.00100   0.00027
   70 O4      .S        0.00523  -0.00869   0.01506   0.01506   0.00000
   71 O4      .S       -0.01097   0.05631  -0.09747  -0.09748   0.00002
   72 O4      .X       -0.02261  -0.00073   0.00127  -0.01211   0.44910
   73 O4      .Y        0.02267  -0.00447   0.01650  -0.00127  -0.29533
   74 O4      .Z       -0.07909   0.01206  -0.01211  -0.01649  -0.74442
   75 O4      .S        0.09294   0.05468  -0.09482  -0.09483  -0.00008
   76 O4      .X        0.21920   0.00505  -0.00877   0.02404  -0.58708
   77 O4      .Y       -0.22420   0.05281   0.04335   0.00879   0.38683
   78 O4      .Z        0.24276   0.06390   0.02405  -0.04333   0.97385
   79 O4      .XX       0.04741   0.00287  -0.00496  -0.00088   0.07016
   80 O4      .YY       0.05175   0.00050  -0.00091  -0.00497   0.04297
   81 O4      .ZZ       0.03735   0.00055  -0.00089  -0.00091  -0.11311
   82 O4      .XY      -0.04759  -0.00096   0.00367   0.00266  -0.10786
   83 O4      .XZ       0.03379   0.00270  -0.00267   0.00038  -0.03881
   84 O4      .YZ      -0.03893   0.00022  -0.00038   0.00367   0.06905
   85 O5      .S        0.00347   0.01739   0.00000  -0.01505   0.01726
   86 O5      .S       -0.01309  -0.11251  -0.00002   0.09745  -0.11170
   87 O5      .X        0.02940   0.01651   0.00438   0.00127   0.01582
   88 O5      .Y       -0.02934   0.00147   0.00001   0.01210  -0.01696
   89 O5      .Z       -0.08582  -0.01651   0.00438   0.01649   0.00146
   90 O5      .S        0.10715  -0.10964   0.00001   0.09485  -0.10884
   91 O5      .X       -0.22316   0.01118   0.06739  -0.00877   0.00324
   92 O5      .Y        0.21815  -0.01017   0.00001  -0.02405  -0.01896
   93 O5      .Z        0.24671  -0.01119   0.06740   0.04336  -0.01009
   94 O5      .XX       0.04061  -0.00103  -0.00003   0.00496  -0.00100
   95 O5      .YY       0.03626  -0.00572  -0.00000   0.00088  -0.00104
   96 O5      .ZZ       0.03050  -0.00103   0.00002   0.00091  -0.00568
   97 O5      .XY      -0.03857   0.00366   0.00100  -0.00266  -0.00042
   98 O5      .XZ      -0.03498  -0.00043   0.00000  -0.00368   0.00348
   99 O5      .YZ       0.02985  -0.00367   0.00100  -0.00038  -0.00379
                          46        47        48        49        50
                           V         V         V         V         V    
     Eigenvalues --    33.15238  33.15601  33.15592  33.15604  34.30230
    1 Mn1     .S       -0.00000  -0.00000  -0.00000   0.00000  -0.05148
    2 Mn1     .S        0.00001  -0.00000   0.00001  -0.00001  -0.13534
    3 Mn1     .X       -0.01649   0.01033  -0.01788  -0.01033  -0.00001
    4 Mn1     .Y       -0.01901   0.01032  -0.01788   0.01032  -0.00002
    5 Mn1     .Z       -0.00252  -0.02064   0.00001  -0.02065   0.00001
    6 Mn1     .S        0.00006   0.00000   0.00007  -0.00007   0.13345
    7 Mn1     .X       -0.10544   0.06609  -0.11440  -0.06609  -0.00010
    8 Mn1     .Y       -0.12175   0.06602  -0.11443   0.06603  -0.00015
    9 Mn1     .Z       -0.01631  -0.13215   0.00005  -0.13213   0.00012
   10 Mn1     .S        0.00015  -0.00000   0.00018  -0.00016   3.27408
   11 Mn1     .X       -0.37119   0.23259  -0.40262  -0.23260  -0.00030
   12 Mn1     .Y       -0.42840   0.23239  -0.40273   0.23240  -0.00047
   13 Mn1     .Z       -0.05720  -0.46507   0.00016  -0.46503   0.00038
   14 Mn1     .S        0.00004   0.00000   0.00004  -0.00005   0.86112
   15 Mn1     .X        0.03872  -0.02429   0.04204   0.02429   0.00034
   16 Mn1     .Y        0.04477  -0.02426   0.04205  -0.02427   0.00052
   17 Mn1     .Z        0.00605   0.04857  -0.00002   0.04856  -0.00042
   18 Mn1     .XX      -0.00934  -0.00603   0.01044   0.00600  -0.28668
   19 Mn1     .YY       0.01136  -0.00600  -0.01042   0.00600  -0.28668
   20 Mn1     .ZZ      -0.00199   0.01204   0.00001  -0.01205  -0.28668
   21 Mn1     .XY      -0.00025  -0.00019  -0.00001  -0.00020   0.00012
   22 Mn1     .XZ      -0.00029   0.00010  -0.00017   0.00011  -0.00013
   23 Mn1     .YZ      -0.00005   0.00010  -0.00017  -0.00011  -0.00012
   24 Mn1     .XX       0.08812   0.05572  -0.09641  -0.05568   1.09524
   25 Mn1     .YY      -0.10333   0.05562   0.09640  -0.05563   1.09524
   26 Mn1     .ZZ       0.01518  -0.11133  -0.00005   0.11135   1.09524
   27 Mn1     .XY       0.00454   0.03093   0.00002   0.03095  -0.00010
   28 Mn1     .XZ       0.02890  -0.01548   0.02684  -0.01548   0.00012
   29 Mn1     .YZ       0.02436  -0.01550   0.02682   0.01549   0.00010
   30 Mn1     .XXX      0.01342   0.01427   0.01211  -0.01428   0.00001
   31 Mn1     .YYY     -0.01213   0.00670  -0.01159   0.00669   0.00009
   32 Mn1     .ZZZ      0.00126   0.01339  -0.00001   0.01339  -0.00005
   33 Mn1     .XYY      0.01687   0.00977   0.01601  -0.00978   0.00007
   34 Mn1     .XXY     -0.01560  -0.00038  -0.01578  -0.00039   0.00008
   35 Mn1     .XXZ      0.01719   0.00899  -0.01648   0.00897  -0.00003
   36 Mn1     .XZZ      0.00228   0.01875   0.00047  -0.01876  -0.00012
   37 Mn1     .YZZ     -0.00136   0.01873   0.00046   0.01873   0.00008
   38 Mn1     .YYZ      0.01719   0.00899  -0.01648   0.00897  -0.00003
   39 Mn1     .XYZ     -0.00000   0.00000  -0.00001   0.00000  -0.27071
   40 O2      .S       -0.01570  -0.00000  -0.01476  -0.00852  -0.02944
   41 O2      .S        0.10332  -0.00002   0.09726   0.05621  -0.00148
   42 O2      .X       -0.01340   0.37092   0.00114   0.00064  -0.00695
   43 O2      .Y        0.00122   0.37068  -0.01204  -0.01249  -0.00694
   44 O2      .Z       -0.01725  -0.74161  -0.01683  -0.00422  -0.00699
   45 O2      .S        0.09659   0.00005   0.09067   0.05230   0.56577
   46 O2      .X        0.01560  -0.48316  -0.01078  -0.00619   0.06422
   47 O2      .Y       -0.01130  -0.48282   0.02345  -0.06230   0.06423
   48 O2      .Z       -0.03564   0.96593  -0.04228   0.05149   0.06423
   49 O2      .XX       0.00111  -0.06530   0.00622   0.00360  -0.08897
   50 O2      .YY       0.00652  -0.06536   0.00105   0.00079  -0.08898
   51 O2      .ZZ       0.00126   0.13065   0.00121   0.00052  -0.08897
   52 O2      .XY       0.00357  -0.14491   0.00327   0.00337  -0.06947
   53 O2      .XZ      -0.00055   0.07253   0.00456   0.00117  -0.06946
   54 O2      .YZ       0.00464   0.07238  -0.00053  -0.00030  -0.06947
   55 O3      .S        0.01361  -0.01704   0.01476  -0.00852  -0.02946
   56 O3      .S       -0.08985   0.11233  -0.09732   0.05616  -0.00143
   57 O3      .X        0.00102   0.01668  -0.01206   0.01249   0.00702
   58 O3      .Y       -0.01054   0.01669   0.00112  -0.00064   0.00703
   59 O3      .Z        0.01619   0.00131   0.01684  -0.00421  -0.00703
   60 O3      .S       -0.08338   0.10469  -0.09056   0.05226   0.56572
   61 O3      .X       -0.01004   0.01085   0.02346   0.06230  -0.06445
   62 O3      .Y        0.03097   0.01087  -0.01073   0.00617  -0.06444
   63 O3      .Z        0.04825  -0.01243   0.04221   0.05150   0.06445
   64 O3      .XX      -0.00585   0.00131  -0.00106   0.00079  -0.08903
   65 O3      .YY      -0.00099   0.00131  -0.00624   0.00360  -0.08902
   66 O3      .ZZ      -0.00115   0.00719  -0.00122   0.00052  -0.08902
   67 O3      .XY      -0.00294  -0.00061  -0.00328   0.00337  -0.06951
   68 O3      .XZ       0.00442  -0.00453  -0.00053   0.00029   0.06952
   69 O3      .YZ      -0.00049  -0.00453   0.00456  -0.00116   0.06950
   70 O4      .S       -0.00000   0.00852  -0.00001   0.01705  -0.02945
   71 O4      .S       -0.00002  -0.05613  -0.00001  -0.11235  -0.00149
   72 O4      .X       -0.59274  -0.01248   0.00478  -0.01668   0.00698
   73 O4      .Y       -0.68252  -0.00064   0.00479   0.01669  -0.00693
   74 O4      .Z       -0.08982  -0.00421  -0.00001   0.00130   0.00694
   75 O4      .S        0.00007  -0.05236   0.00015  -0.10472   0.56580
   76 O4      .X        0.77180  -0.06234   0.06574  -0.01087  -0.06420
   77 O4      .Y        0.88923   0.00621   0.06566   0.01090   0.06421
   78 O4      .Z        0.11753   0.05148   0.00003  -0.01244  -0.06419
   79 O4      .XX      -0.10554  -0.00078   0.00015  -0.00131  -0.08898
   80 O4      .YY       0.11913  -0.00360  -0.00016  -0.00131  -0.08899
   81 O4      .ZZ      -0.01360  -0.00052  -0.00001  -0.00719  -0.08897
   82 O4      .XY      -0.01290   0.00337  -0.00000  -0.00061   0.06948
   83 O4      .XZ      -0.13104   0.00030   0.00128  -0.00452  -0.06947
   84 O4      .YZ      -0.11813   0.00117   0.00127   0.00453   0.06947
   85 O5      .S        0.00208   0.00853  -0.00000   0.00000  -0.02944
   86 O5      .S       -0.01350  -0.05615  -0.00003   0.00002  -0.00147
   87 O5      .X        0.00672  -0.00064  -0.64216  -0.37096  -0.00697
   88 O5      .Y        0.00276  -0.01248  -0.64235   0.37065   0.00701
   89 O5      .Z        0.00017  -0.00421   0.00018  -0.74160   0.00696
   90 O5      .S       -0.01302  -0.05244   0.00012  -0.00008   0.56574
   91 O5      .X        0.06653   0.00622   0.83636   0.48320   0.06425
   92 O5      .Y        0.06393  -0.06234   0.83668  -0.48279  -0.06424
   93 O5      .Z       -0.00118   0.05145  -0.00020   0.96592  -0.06426
   94 O5      .XX      -0.00028  -0.00359   0.11313   0.06536  -0.08896
   95 O5      .YY       0.00002  -0.00078  -0.11318   0.06531  -0.08896
   96 O5      .ZZ      -0.00069  -0.00051   0.00003  -0.13065  -0.08897
   97 O5      .XY      -0.00005   0.00337   0.00003  -0.14491   0.06945
   98 O5      .XZ       0.00169   0.00117  -0.12552   0.07243   0.06947
   99 O5      .YZ       0.00083   0.00030  -0.12547  -0.07249  -0.06946
                          51        52        53        54        55
                           V         V         V         V         V    
     Eigenvalues --    38.59268  38.78195  43.96807  43.96807  45.80500
    1 Mn1     .S        0.01303   0.01318   0.00000   0.00000  -0.00207
    2 Mn1     .S        0.08374   0.08583   0.00000   0.00000   0.05403
    3 Mn1     .X        0.00085  -0.00429  -0.00000   0.00000  -0.00482
    4 Mn1     .Y        0.00658  -0.00874  -0.00000   0.00000  -0.00482
    5 Mn1     .Z       -0.00452   0.00610   0.00000  -0.00000  -0.00481
    6 Mn1     .S        1.10325   1.07461   0.00000  -0.00000   0.21505
    7 Mn1     .X        0.01542  -0.07371  -0.00000   0.00000  -0.24271
    8 Mn1     .Y        0.13115  -0.15002  -0.00000   0.00000  -0.24271
    9 Mn1     .Z       -0.08951   0.10427   0.00000  -0.00000  -0.24265
   10 Mn1     .S       -0.38760  -0.33177   0.00000  -0.00000   0.75533
   11 Mn1     .X        0.04182  -0.20235  -0.00000   0.00000  -0.60334
   12 Mn1     .Y        0.35129  -0.41186  -0.00000   0.00000  -0.60333
   13 Mn1     .Z       -0.23996   0.28644   0.00000  -0.00000  -0.60315
   14 Mn1     .S       -1.45530  -1.37464  -0.00000  -0.00000   0.12187
   15 Mn1     .X       -0.02603   0.10993   0.00000  -0.00000   0.13540
   16 Mn1     .Y       -0.20230   0.22380   0.00000  -0.00000   0.13540
   17 Mn1     .Z        0.13884  -0.15567  -0.00000   0.00000   0.13537
   18 Mn1     .XX       0.52454   0.51546   0.73321  -0.42332   0.02531
   19 Mn1     .YY       0.52446   0.51551  -0.73321  -0.42332   0.02530
   20 Mn1     .ZZ       0.53220   0.51027   0.00000   0.84664   0.02534
   21 Mn1     .XY       0.26059  -0.28943  -0.00000   0.00000   0.05084
   22 Mn1     .XZ      -0.37875   0.41551   0.00000   0.00000   0.05088
   23 Mn1     .YZ      -0.05066   0.20403  -0.00000   0.00000   0.05090
[...]
   72 O4      .X        0.01157  -0.01010   0.05304   0.00591  -0.06580
   73 O4      .Y       -0.01003   0.01194  -0.05273  -0.01713   0.06088
   74 O4      .Z        0.02078  -0.02087  -0.10370   0.00137  -0.08411
   75 O4      .S       -0.11014   0.11157   0.01730  -0.06103  -0.18336
   76 O4      .X        0.00937  -0.04990  -0.11702   0.02775  -0.07131
   77 O4      .Y       -0.04889   0.00857   0.11636   0.04156   0.08406
   78 O4      .Z       -0.03268   0.03218   0.23060   0.03037  -0.25739
   79 O4      .XX       0.02564  -0.03772  -0.53239   0.02099   0.02512
   80 O4      .YY       0.03705  -0.02580  -0.52957   0.00796   0.00595
   81 O4      .ZZ       0.01983  -0.02016   1.04281   0.01790  -0.10995
   82 O4      .XY      -0.01361   0.01397  -0.08435  -0.01148  -0.02024
   83 O4      .XZ       0.00271  -0.01704  -0.04573   0.00606  -0.03446
   84 O4      .YZ      -0.01678   0.00280   0.04605  -0.00162   0.04178
   85 O5      .S       -0.00840   0.00831   0.00961   0.00480   0.00043
   86 O5      .S       -0.01603   0.01579   0.01820   0.00908  -0.01187
   87 O5      .X        0.01008  -0.01163  -0.01877  -0.01732  -0.00661
   88 O5      .Y       -0.01200   0.01001   0.01880   0.00607   0.00181
   89 O5      .Z       -0.02090   0.02082   0.01170   0.00171  -0.02089
   90 O5      .S        0.11202  -0.11059  -0.12732  -0.06284   0.00156
   91 O5      .X        0.05022  -0.00917   0.01315   0.04142   0.04382
   92 O5      .Y       -0.00838   0.04922  -0.01328   0.02856  -0.02978
   93 O5      .Z        0.03225  -0.03275   0.05670   0.02985   0.04917
   94 O5      .XX      -0.03793   0.02567   0.02639   0.00837  -0.05239
   95 O5      .YY      -0.02582   0.03726   0.02637   0.02160  -0.03223
   96 O5      .ZZ      -0.02021   0.01988   0.04296   0.01822   0.07228
   97 O5      .XY       0.01407  -0.01370  -0.00317  -0.01171   0.03109
   98 O5      .XZ       0.01713  -0.00274  -0.01766  -0.00166  -0.00999
   99 O5      .YZ      -0.00282   0.01686   0.01767   0.00634   0.01775
                          86        87        88        89        90
                           V         V         V         V         V    
     Eigenvalues --    65.54553  67.28401  67.55591  67.70116  71.32187
    1 Mn1     .S        0.00016  -0.00000   0.00000   0.00000   0.00001
    2 Mn1     .S        0.00106  -0.00003  -0.00004  -0.00003   0.00005
    3 Mn1     .X        0.00904   0.00004   0.00545  -0.00002  -0.00005
    4 Mn1     .Y        0.00360   0.00587  -0.00009   0.00053   0.00003
    5 Mn1     .Z        0.01399  -0.00331  -0.00000  -0.00893  -0.00006
    6 Mn1     .S        0.01247   0.00032  -0.00019   0.00014   0.00088
    7 Mn1     .X        0.09848  -0.00026  -0.05401  -0.00012  -0.00103
    8 Mn1     .Y        0.03934  -0.04938  -0.00011  -0.00116   0.00019
    9 Mn1     .Z        0.15243  -0.03906  -0.00006   0.01981  -0.00177
   10 Mn1     .S       -0.00322  -0.00008  -0.00092  -0.00054  -0.00049
   11 Mn1     .X        0.29720  -0.00035  -0.08820  -0.00038  -0.00274
   12 Mn1     .Y        0.11865  -0.07443  -0.00088   0.00094   0.00068
   13 Mn1     .Z        0.45992  -0.11431  -0.00014  -0.01594  -0.00452
   14 Mn1     .S       -0.01531  -0.00052  -0.00086  -0.00073  -0.00133
   15 Mn1     .X       -0.13545   0.00041   0.09861   0.00043   0.00157
   16 Mn1     .Y       -0.05393   0.08358   0.00097  -0.00087  -0.00025
   17 Mn1     .Z       -0.20976   0.12486   0.00014   0.01503   0.00277
   18 Mn1     .XX       0.00266   0.00013  -0.00002   0.00010  -0.01019
   19 Mn1     .YY       0.00289   0.00013  -0.00002   0.00010   0.01093
   20 Mn1     .ZZ       0.01241   0.00013  -0.00001   0.00010   0.00051
   21 Mn1     .XY      -0.38679  -0.01248   0.00019   0.08408   0.00516
   22 Mn1     .XZ      -0.09910  -0.08969   0.00023  -0.00525  -0.00054
   23 Mn1     .YZ      -0.24983  -0.00077  -0.09098  -0.00023   0.00293
   24 Mn1     .XX      -0.00322   0.00030   0.00007   0.00019  -0.00815
   25 Mn1     .YY      -0.00303   0.00030   0.00007   0.00019   0.00804
   26 Mn1     .ZZ       0.00426   0.00030   0.00007   0.00019   0.00005
   27 Mn1     .XY       0.61455  -0.00564  -0.00025   0.02475  -0.00814
   28 Mn1     .XZ       0.15825  -0.02769   0.00051  -0.00115   0.00070
   29 Mn1     .YZ       0.39700   0.00010  -0.02825   0.00023  -0.00462
   30 Mn1     .XXX     -0.39844   0.00158   0.26401  -0.00001  -0.00339
   31 Mn1     .YYY      0.02780  -1.05153   0.00692  -0.06274   0.00013
   32 Mn1     .ZZZ     -0.10818   0.06591  -0.00008  -1.05406   0.00145
   33 Mn1     .XYY     -0.38761   0.00443   0.70854   0.00009  -0.00267
   34 Mn1     .XXY      0.37410  -1.05810   0.00697  -0.06321  -0.00008
   35 Mn1     .XXZ     -0.07528   0.04421  -0.00006  -0.70708  -0.93856
   36 Mn1     .XZZ     -0.29389  -0.00463  -0.70869  -0.00020  -0.00377
   37 Mn1     .YZZ     -0.67361  -0.70535   0.00463  -0.04192   0.00051
   38 Mn1     .YYZ     -0.07528   0.04421  -0.00006  -0.70708  -0.93856
   39 Mn1     .XYZ      0.00152   0.00041   0.00057   0.00051   0.00013
   40 O2      .S        0.02630   0.01275   0.01168  -0.01078  -0.00025
   41 O2      .S       -0.17279   0.01244   0.01231  -0.01266   0.00123
   42 O2      .X        0.06346  -0.04167  -0.03474   0.04027   0.00835
   43 O2      .Y        0.06682  -0.03645  -0.04050   0.04036  -0.00945
   44 O2      .Z        0.06736  -0.03722  -0.04055   0.03840  -0.00073
   45 O2      .S       -0.19652  -0.08011  -0.08094   0.08362   0.00244
   46 O2      .X        0.04435  -0.01122  -0.06421  -0.01758   0.10250
   47 O2      .Y        0.07417  -0.07755   0.00345  -0.02148  -0.10489
   48 O2      .Z        0.23249  -0.01658   0.00301   0.04798  -0.00115
   49 O2      .XX       0.03848   0.05475   0.10294  -0.04291  -0.08052
   50 O2      .YY       0.01046   0.10895   0.04790  -0.03960   0.08082
   51 O2      .ZZ      -0.11013   0.05692   0.04825  -0.09830  -0.00016
   52 O2      .XY       0.02628   0.06457   0.06139   0.00949   0.00023
   53 O2      .XZ      -0.03014   0.00325   0.06181  -0.05978  -0.03586
   54 O2      .YZ      -0.04127   0.06738  -0.00336  -0.05589   0.03611
   55 O3      .S        0.00065  -0.01075  -0.01171  -0.01217  -0.00012
   56 O3      .S       -0.01012  -0.01277  -0.01242  -0.01414   0.00034
   57 O3      .X       -0.01085  -0.04066  -0.03483  -0.04527  -0.00886
   58 O3      .Y       -0.00726  -0.03544  -0.04059  -0.04517   0.00899
   59 O3      .Z       -0.00862   0.04520   0.04062   0.04347  -0.00043
   60 O3      .S       -0.00097   0.08556   0.08128   0.09428   0.00135
   61 O3      .X       -0.06866   0.02085  -0.06436   0.01974  -0.10351
   62 O3      .Y       -0.03754  -0.04548   0.00329   0.01584   0.10356
   63 O3      .Z       -0.08868  -0.02703  -0.00288   0.04587  -0.00113
   64 O3      .XX      -0.05959  -0.04261  -0.10313  -0.04837  -0.08062
   65 O3      .YY      -0.03064  -0.09681  -0.04809  -0.05167   0.08016
   66 O3      .ZZ       0.08167  -0.03974  -0.04845  -0.10379   0.00020
   67 O3      .XY      -0.03509  -0.05866  -0.06147   0.00238  -0.00011
   68 O3      .XZ      -0.01061  -0.00912   0.06190   0.05911   0.03576
   69 O3      .YZ      -0.02216   0.05502  -0.00327   0.06299  -0.03603
   70 O4      .S       -0.02036   0.01056  -0.01184   0.01212   0.00019
   71 O4      .S        0.12327   0.01254  -0.01271   0.01406  -0.00180
   72 O4      .X        0.04970   0.04017  -0.03543   0.04526   0.00019
   73 O4      .Y       -0.04805  -0.03486   0.04127  -0.04510   0.00151
   74 O4      .Z        0.04651   0.04462  -0.04124   0.04340  -0.00077
   75 O4      .S        0.15949  -0.08401   0.08239  -0.09391  -0.00128
   76 O4      .X        0.16218  -0.02176  -0.06394  -0.02006   0.09613
   77 O4      .Y       -0.03436  -0.04537  -0.00283   0.01617   0.09897
   78 O4      .Z        0.05952  -0.02710   0.00327   0.04557  -0.00116
   79 O4      .XX       0.07171   0.04112  -0.10368   0.04812   0.07976
   80 O4      .YY      -0.02078   0.09600  -0.04938   0.05143  -0.08081
   81 O4      .ZZ      -0.01618   0.03896  -0.04899   0.10356  -0.00009
   82 O4      .XY      -0.02145  -0.05777   0.06222   0.00253   0.00029
   83 O4      .XZ       0.02795  -0.00999  -0.06177   0.05897   0.03566
   84 O4      .YZ       0.01650  -0.05497  -0.00253  -0.06288   0.03592
   85 O5      .S       -0.00938  -0.01263   0.01182   0.01076  -0.00001
   86 O5      .S        0.05356  -0.01243   0.01253   0.01248  -0.00043
   87 O5      .X       -0.01994   0.04130  -0.03535  -0.04013  -0.00089
   88 O5      .Y        0.02172  -0.03599   0.04119   0.04028  -0.00107
   89 O5      .Z        0.02232  -0.03677   0.04114   0.03832  -0.00030
   90 O5      .S        0.07546   0.07939  -0.08223  -0.08331   0.00040
   91 O5      .X        0.05281   0.01072  -0.06369   0.01768  -0.09759
   92 O5      .Y        0.07398  -0.07784  -0.00308  -0.02158  -0.09743
   93 O5      .Z        0.09190  -0.01691  -0.00355   0.04786  -0.00106
   94 O5      .XX      -0.05845  -0.05362   0.10349   0.04278   0.08005
   95 O5      .YY       0.03312  -0.10850   0.04919   0.03946  -0.08010
   96 O5      .ZZ       0.03745  -0.05651   0.04882   0.09814  -0.00057
   97 O5      .XY       0.01291   0.06388  -0.06213   0.00954  -0.00016
   98 O5      .XZ       0.00834   0.00257  -0.06169  -0.05972  -0.03558
   99 O5      .YZ       0.03570  -0.06753  -0.00261   0.05581  -0.03587
                          91        92        93        94        95
                           V         V         V         V         V    
     Eigenvalues --    76.49162 102.55828 104.43385 104.48000 104.49156
    1 Mn1     .S       -0.01543  -0.01427  -0.01437  -0.01437  -0.01437
    2 Mn1     .S       -0.15875   0.04970   0.06083   0.06163   0.06183
    3 Mn1     .X        0.00003  -0.00526  -0.00043  -0.00093   0.00100
    4 Mn1     .Y        0.00003   0.00526  -0.00043   0.00084   0.00099
    5 Mn1     .Z       -0.00003   0.00526   0.00051  -0.00085   0.00097
    6 Mn1     .S       -0.62147   0.23237   0.37317   0.38325   0.38591
    7 Mn1     .X        0.00032  -0.27862   0.31641   0.31819  -0.31929
    8 Mn1     .Y        0.00032   0.27862   0.31640  -0.31909  -0.31940
    9 Mn1     .Z       -0.00032   0.27861  -0.31559   0.31898  -0.31955
   10 Mn1     .S       -0.18392   1.44037   1.48418   1.48629   1.48680
   11 Mn1     .X        0.00091  -0.61618   0.65540   0.65541  -0.65737
   12 Mn1     .Y        0.00092   0.61619   0.65538  -0.65821  -0.65772
   13 Mn1     .Z       -0.00091   0.61618  -0.65286   0.65786  -0.65819
   14 Mn1     .S        0.25633   0.23713   0.25871   0.26007   0.26043
   15 Mn1     .X       -0.00099   0.02884  -0.04321  -0.04396   0.04442
   16 Mn1     .Y       -0.00100  -0.02884  -0.04321   0.04436   0.04447
   17 Mn1     .Z        0.00099  -0.02884   0.04285  -0.04431   0.04454
   18 Mn1     .XX      -0.26545  -0.08566  -0.03463  -0.03156  -0.03019
   19 Mn1     .YY      -0.26545  -0.08566  -0.03464  -0.03080  -0.03009
   20 Mn1     .ZZ      -0.26545  -0.08566  -0.03533  -0.03089  -0.02997
   21 Mn1     .XY       0.00002   0.01194  -0.00754   0.00781  -0.00766
   22 Mn1     .XZ      -0.00004   0.01195   0.00817  -0.00789  -0.00754
   23 Mn1     .YZ      -0.00002  -0.01195   0.00818   0.00719  -0.00745
   24 Mn1     .XX       0.73729  -0.12119  -0.15892  -0.15900  -0.16108
   25 Mn1     .YY       0.73729  -0.12120  -0.15889  -0.16186  -0.16144
   26 Mn1     .ZZ       0.73729  -0.12118  -0.15628  -0.16152  -0.16192
   27 Mn1     .XY      -0.00018  -0.00066  -0.04270   0.04376  -0.04483
   28 Mn1     .XZ       0.00021  -0.00067   0.04037  -0.04346  -0.04526
   29 Mn1     .YZ       0.00018   0.00066   0.04034   0.04603  -0.04559
   30 Mn1     .XXX     -0.00013  -0.01173   0.00896   0.00914  -0.00929
   31 Mn1     .YYY      0.00040  -0.04693  -0.03789   0.03716   0.03684
   32 Mn1     .ZZZ      0.00039   0.04693  -0.03757   0.03712  -0.03690
   33 Mn1     .XYY     -0.00030  -0.03148   0.02496   0.02464  -0.02477
   34 Mn1     .XXY      0.00039  -0.04722  -0.03789   0.03761   0.03714
   35 Mn1     .XXZ      0.00026   0.03148  -0.02521   0.02439  -0.02469
   36 Mn1     .XZZ      0.00023   0.03148  -0.02588  -0.02475   0.02460
   37 Mn1     .YZZ      0.00029  -0.03148  -0.02588   0.02448   0.02456
   38 Mn1     .YYZ      0.00026   0.03148  -0.02521   0.02439  -0.02469
   39 Mn1     .XYZ      1.23614   0.03215   0.01065   0.00891   0.00849
   40 O2      .S        0.02954  -0.01206  -0.01234  -0.01247  -0.50888
   41 O2      .S        0.10379  -0.02900  -0.02777  -0.02797  -0.23484
   42 O2      .X        0.07479  -0.02520   0.00399   0.00409   0.14688
   43 O2      .Y        0.07479   0.00546   0.00399  -0.02520   0.14672
   44 O2      .Z        0.07485   0.00546  -0.02535   0.00420   0.14650
   45 O2      .S       -0.63076   0.29400   0.29555   0.29717   5.08669
   46 O2      .X        0.28587   0.06191  -0.15460  -0.15478  -0.60238
   47 O2      .Y        0.28586  -0.15041  -0.15460   0.05086  -0.60202
   48 O2      .Z        0.28577  -0.15041   0.05098  -0.15530  -0.60153
   49 O2      .XX      -0.02811  -0.04753  -0.01241  -0.01279  -1.68639
   50 O2      .YY      -0.02811  -0.01232  -0.01241  -0.04172  -1.68800
   51 O2      .ZZ      -0.02808  -0.01232  -0.04165  -0.01272  -1.69016
   52 O2      .XY      -0.14419   0.00124   0.00754   0.00554   0.13635
   53 O2      .XZ      -0.14415   0.00124   0.00541   0.00762   0.13656
   54 O2      .YZ      -0.14415   0.00595   0.00541   0.00550   0.13670
   55 O3      .S        0.02956  -0.01206  -0.50890  -0.01235  -0.01245
   56 O3      .S        0.10383  -0.02900  -0.23852  -0.02776  -0.02790
   57 O3      .X       -0.07484  -0.00546  -0.14348   0.02534  -0.00406
   58 O3      .Y       -0.07484   0.02520  -0.14349  -0.00392  -0.00407
   59 O3      .Z        0.07484   0.00546   0.14463   0.00391  -0.02523
   60 O3      .S       -0.63057   0.29400   5.08930   0.29561   0.29681
   61 O3      .X       -0.28523   0.15041   0.59338  -0.05017   0.15502
   62 O3      .Y       -0.28524  -0.06191   0.59341   0.15491   0.15509
   63 O3      .Z        0.28524  -0.15041  -0.59595  -0.15484   0.05049
   64 O3      .XX      -0.02791  -0.01233  -1.69513  -0.04120  -0.01270
   65 O3      .YY      -0.02791  -0.04753  -1.69500  -0.01243  -0.01269
   66 O3      .ZZ      -0.02791  -0.01232  -1.68347  -0.01244  -0.04149
   67 O3      .XY      -0.14402   0.00124   0.12854   0.00573   0.00766
   68 O3      .XZ       0.14402  -0.00595  -0.12759  -0.00574  -0.00565
   69 O3      .YZ       0.14402  -0.00124  -0.12758  -0.00766  -0.00564
   70 O4      .S        0.02954  -0.01206  -0.01244  -0.50889  -0.01243
   71 O4      .S        0.10379  -0.02900  -0.02797  -0.23573  -0.02786
   72 O4      .X       -0.07485  -0.00546   0.02522  -0.14684  -0.00401
   73 O4      .Y        0.07479   0.00546   0.00426   0.14552  -0.02525
   74 O4      .Z       -0.07479   0.02520  -0.00415  -0.14570  -0.00405
   75 O4      .S       -0.63076   0.29399   0.29698   5.08749   0.29655
   76 O4      .X       -0.28577   0.15041  -0.05162   0.60211   0.15494
   77 O4      .Y        0.28587  -0.15041  -0.15501  -0.59923   0.05038
   78 O4      .Z       -0.28586  -0.06191   0.15449   0.59960   0.15511
   79 O4      .XX      -0.02809  -0.01232  -0.04213  -1.68083  -0.01265
   80 O4      .YY      -0.02811  -0.01232  -0.01267  -1.69360  -0.04140
   81 O4      .ZZ      -0.02810  -0.04753  -0.01274  -1.69206  -0.01262
   82 O4      .XY       0.14415  -0.00595  -0.00520  -0.13456  -0.00569
   83 O4      .XZ      -0.14415   0.00124   0.00524   0.13436   0.00767
   84 O4      .YZ       0.14418  -0.00124  -0.00750  -0.13555  -0.00568
   85 O5      .S        0.02954  -0.50310  -0.01244  -0.01245  -0.01241
   86 O5      .S        0.10379  -0.28216  -0.02797  -0.02795  -0.02783
   87 O5      .X        0.07479   0.10680   0.00426   0.00405  -0.02527
   88 O5      .Y       -0.07484  -0.10680   0.02522  -0.00418  -0.00399
   89 O5      .Z       -0.07479  -0.10680  -0.00414   0.02522  -0.00401
   90 O5      .S       -0.63075   5.07145   0.29697   0.29698   0.29635
   91 O5      .X        0.28586  -0.50149  -0.15502  -0.15473   0.05029
   92 O5      .Y       -0.28576   0.50149  -0.05161   0.15531   0.15496
   93 O5      .Z       -0.28587   0.50150   0.15449  -0.05078   0.15505
   94 O5      .XX      -0.02811  -1.70432  -0.01267  -0.01276  -0.04134
   95 O5      .YY      -0.02808  -1.70434  -0.04213  -0.01268  -0.01260
   96 O5      .ZZ      -0.02811  -1.70429  -0.01274  -0.04166  -0.01259
   97 O5      .XY       0.14415  -0.03872  -0.00520  -0.00763  -0.00571
   98 O5      .XZ       0.14419  -0.03872  -0.00750  -0.00557  -0.00571
   99 O5      .YZ      -0.14415   0.03872   0.00524   0.00553   0.00767
                          96
                           V    
     Eigenvalues --   447.98035
    1 Mn1     .S        0.15393
    2 Mn1     .S        1.24721
    3 Mn1     .X       -0.00000
    4 Mn1     .Y       -0.00000
    5 Mn1     .Z        0.00000
    6 Mn1     .S       17.61470
    7 Mn1     .X       -0.00001
    8 Mn1     .Y       -0.00002
    9 Mn1     .Z        0.00002
   10 Mn1     .S       -1.12687
   11 Mn1     .X       -0.00004
   12 Mn1     .Y       -0.00006
   13 Mn1     .Z        0.00005
   14 Mn1     .S       -0.13086
   15 Mn1     .X        0.00004
   16 Mn1     .Y        0.00007
   17 Mn1     .Z       -0.00006
   18 Mn1     .XX       8.02042
   19 Mn1     .YY       8.02042
   20 Mn1     .ZZ       8.02042
   21 Mn1     .XY       0.00002
   22 Mn1     .XZ      -0.00002
   23 Mn1     .YZ      -0.00002
   24 Mn1     .XX       0.51596
   25 Mn1     .YY       0.51596
   26 Mn1     .ZZ       0.51596
   27 Mn1     .XY      -0.00001
   28 Mn1     .XZ       0.00002
   29 Mn1     .YZ       0.00001
   30 Mn1     .XXX      0.00000
   31 Mn1     .YYY      0.00001
   32 Mn1     .ZZZ     -0.00001
   33 Mn1     .XYY      0.00001
   34 Mn1     .XXY      0.00000
   35 Mn1     .XXZ     -0.00000
   36 Mn1     .XZZ     -0.00002
   37 Mn1     .YZZ      0.00001
   38 Mn1     .YYZ     -0.00000
   39 Mn1     .XYZ     -0.03632
   40 O2      .S        0.03557
   41 O2      .S        0.11116
   42 O2      .X       -0.04525
   43 O2      .Y       -0.04525
   44 O2      .Z       -0.04526
   45 O2      .S       -0.67642
   46 O2      .X        0.13289
   47 O2      .Y        0.13289
   48 O2      .Z        0.13289
   49 O2      .XX       0.11673
   50 O2      .YY       0.11673
   51 O2      .ZZ       0.11673
   52 O2      .XY      -0.00147
   53 O2      .XZ      -0.00147
   54 O2      .YZ      -0.00147
   55 O3      .S        0.03557
   56 O3      .S        0.11116
   57 O3      .X        0.04526
   58 O3      .Y        0.04526
   59 O3      .Z       -0.04526
   60 O3      .S       -0.67642
   61 O3      .X       -0.13292
   62 O3      .Y       -0.13292
   63 O3      .Z        0.13292
   64 O3      .XX       0.11672
   65 O3      .YY       0.11672
   66 O3      .ZZ       0.11672
   67 O3      .XY      -0.00148
   68 O3      .XZ       0.00148
   69 O3      .YZ       0.00148
   70 O4      .S        0.03557
   71 O4      .S        0.11116
   72 O4      .X        0.04525
   73 O4      .Y       -0.04525
   74 O4      .Z        0.04525
   75 O4      .S       -0.67641
   76 O4      .X       -0.13289
   77 O4      .Y        0.13289
   78 O4      .Z       -0.13288
   79 O4      .XX       0.11673
   80 O4      .YY       0.11673
   81 O4      .ZZ       0.11673
   82 O4      .XY       0.00147
   83 O4      .XZ      -0.00147
   84 O4      .YZ       0.00147
   85 O5      .S        0.03557
   86 O5      .S        0.11116
   87 O5      .X       -0.04525
   88 O5      .Y        0.04526
   89 O5      .Z        0.04525
   90 O5      .S       -0.67642
   91 O5      .X        0.13289
   92 O5      .Y       -0.13289
   93 O5      .Z       -0.13289
   94 O5      .XX       0.11673
   95 O5      .YY       0.11673
   96 O5      .ZZ       0.11673
   97 O5      .XY       0.00147
   98 O5      .XZ       0.00147
   99 O5      .YZ      -0.00147
