 Entering Gaussian System

 Standard orientation:



 -------------------------------------------------------
     1  25    0     0.000000     0.000000     0.000000
     2   8    0     0.920665     0.920665     0.920665
     3   8    0    -0.920665    -0.920665     0.920665
     4   8    0    -0.920665     0.920665    -0.920665
     5   8    0     0.920665    -0.920665    -0.920665
 -------------------------------------------------------

 AO basis set (Overlap normalization):
 Atom Mn1     Shell     1 S    6
   5.6347140000e+04   1.7715799860e-03
   8.4609430000e+03   1.3570809890e-02
   1.9273250000e+03   6.6906049480e-02
   5.4323430000e+02   2.3185409820e-01
   1.7399050000e+02   4.7990459630e-01
   5.9360050000e+01   3.4957369730e-01
 Atom Mn1     Shell     2 SP   6
   1.1654120000e+03   2.3887510270e-03   3.9773179260e-03
   2.7732760000e+02   3.1817080360e-02   3.1031119420e-02
   8.9472780000e+01   1.2546700140e-01   1.3518939750e-01
   3.3482560000e+01  -2.9554310330e-02   3.4573869350e-01
   1.3540370000e+01  -6.1751600700e-01   4.6292049130e-01
   5.5579720000e+00  -4.5444580510e-01   2.0905919610e-01
 Atom Mn1     Shell     3 SP   6
   4.5835320000e+01  -3.6658561370e-03  -6.8875779020e-03
   1.5187770000e+01   7.2319712690e-02  -2.8468159590e-02
   6.5007100000e+00   2.5444860950e-01   6.0318319140e-02
   2.7515830000e+00  -2.9103801080e-01   3.9389609440e-01
   1.1454040000e+00  -7.3598602740e-01   5.0137689280e-01
   4.5368700000e-01  -1.9976170740e-01   1.7922639740e-01
 Atom Mn1     Shell     4 SP   3
   1.7579990000e+00   5.6285731860e-02  -5.0350238250e-01
   6.6702200000e-01   2.8974916100e-01   2.3450109190e-01
   1.0512900000e-01  -1.1406532400e+00   9.1412566820e-01
 Atom Mn1     Shell     5 SP   1
   3.8418000000e-02   1.0000000000e+00   1.0000000000e+00
 Atom Mn1     Shell     6 D    3
   2.0943550000e+01   8.6727023140e-02
   5.5104860000e+00   3.8418831390e-01
   1.6650380000e+00   7.0690712560e-01
 Atom Mn1     Shell     7 D    1
   4.6173300000e-01   1.0000000000e+00
 Atom Mn1     Shell     8 F    1
   8.0000000000e-01   1.0000000000e+00
 Atom  O2     Shell     9 S    6
   5.4846716600e+03   1.8310744300e-03
   8.2523494600e+02   1.3950172200e-02
   1.8804695800e+02   6.8445078100e-02
   5.2964500000e+01   2.3271433600e-01
   1.6897570400e+01   4.7019289800e-01
   5.7996353400e+00   3.5852085300e-01
 Atom  O2     Shell    10 SP   3
   1.5539616250e+01  -1.1077754950e-01   7.0874268230e-02
   3.5999335860e+00  -1.4802626270e-01   3.3975283910e-01
   1.0137617500e+00   1.1307670150e+00   7.2715857730e-01
 Atom  O2     Shell    11 SP   1
   2.7000582260e-01   1.0000000000e+00   1.0000000000e+00
 Atom  O2     Shell    12 D    1
   8.0000000000e-01   1.0000000000e+00
 Atom  O3     Shell    13 S    6
   5.4846716600e+03   1.8310744300e-03
   8.2523494600e+02   1.3950172200e-02
   1.8804695800e+02   6.8445078100e-02
   5.2964500000e+01   2.3271433600e-01
   1.6897570400e+01   4.7019289800e-01
   5.7996353400e+00   3.5852085300e-01
 Atom  O3     Shell    14 SP   3
   1.5539616250e+01  -1.1077754950e-01   7.0874268230e-02
   3.5999335860e+00  -1.4802626270e-01   3.3975283910e-01
   1.0137617500e+00   1.1307670150e+00   7.2715857730e-01
 Atom  O3     Shell    15 SP   1
   2.7000582260e-01   1.0000000000e+00   1.0000000000e+00
 Atom  O3     Shell    16 D    1
   8.0000000000e-01   1.0000000000e+00
 Atom  O4     Shell    17 S    6
   5.4846716600e+03   1.8310744300e-03
   8.2523494600e+02   1.3950172200e-02
   1.8804695800e+02   6.8445078100e-02
   5.2964500000e+01   2.3271433600e-01
   1.6897570400e+01   4.7019289800e-01
   5.7996353400e+00   3.5852085300e-01
 Atom  O4     Shell    18 SP   3
   1.5539616250e+01  -1.1077754950e-01   7.0874268230e-02
   3.5999335860e+00  -1.4802626270e-01   3.3975283910e-01
   1.0137617500e+00   1.1307670150e+00   7.2715857730e-01
 Atom  O4     Shell    19 SP   1
   2.7000582260e-01   1.0000000000e+00   1.0000000000e+00
 Atom  O4     Shell    20 D    1
   8.0000000000e-01   1.0000000000e+00
 Atom  O5     Shell    21 S    6
   5.4846716600e+03   1.8310744300e-03
   8.2523494600e+02   1.3950172200e-02
   1.8804695800e+02   6.8445078100e-02
   5.2964500000e+01   2.3271433600e-01
   1.6897570400e+01   4.7019289800e-01
   5.7996353400e+00   3.5852085300e-01
 Atom  O5     Shell    22 SP   3
   1.5539616250e+01  -1.1077754950e-01   7.0874268230e-02
   3.5999335860e+00  -1.4802626270e-01   3.3975283910e-01
   1.0137617500e+00   1.1307670150e+00   7.2715857730e-01
 Atom  O5     Shell    23 SP   1
   2.7000582260e-01   1.0000000000e+00   1.0000000000e+00
 Atom  O5     Shell    24 D    1
   8.0000000000e-01   1.0000000000e+00

 Molecular Orbital Coefficients:
                           1         2         3         4         5
                           O         O         O         O         O    
     Eigenvalues --  -6407.9258-744.61468-637.85176-637.85176-637.85176
    1 Mn1     .S        0.99639   0.30132   0.00000   0.00000   0.00000
    2 Mn1     .S       -0.01173   1.03572   0.00000   0.00000   0.00000
    3 Mn1     .X        0.00000   0.00000   0.00000   0.00000   0.99609
    4 Mn1     .Y        0.00000   0.00000   0.00000   0.99609   0.00000
    5 Mn1     .Z        0.00000   0.00000   0.99609   0.00000   0.00000
    6 Mn1     .S        0.02744   0.04618   0.00000   0.00000   0.00000
    7 Mn1     .X        0.00000   0.00000   0.00000   0.00000   0.00998
    8 Mn1     .Y        0.00000   0.00000   0.00000   0.00998   0.00000
    9 Mn1     .Z        0.00000   0.00000   0.00998   0.00000   0.00000
   10 Mn1     .S        0.00132   0.00384   0.00000   0.00000   0.00000
   11 Mn1     .X        0.00000   0.00000   0.00000   0.00000  -0.00394
   12 Mn1     .Y        0.00000   0.00000   0.00000  -0.00394   0.00000
   13 Mn1     .Z        0.00000   0.00000  -0.00394   0.00000   0.00000
   14 Mn1     .S        0.00036   0.00116   0.00000   0.00000   0.00000
   15 Mn1     .X        0.00000   0.00000   0.00000   0.00000   0.00111
   16 Mn1     .Y        0.00000   0.00000   0.00000   0.00111   0.00000
   17 Mn1     .Z        0.00000   0.00000   0.00111   0.00000   0.00000
   18 Mn1     .XX       0.01078   0.01181   0.00000   0.00000   0.00000
   19 Mn1     .YY       0.01078   0.01181   0.00000   0.00000   0.00000
   20 Mn1     .ZZ       0.01078   0.01181   0.00000   0.00000   0.00000
   21 Mn1     .XY       0.00000   0.00000  -0.00001   0.00000   0.00000
   22 Mn1     .XZ       0.00000   0.00000   0.00000  -0.00001   0.00000
   23 Mn1     .YZ       0.00000   0.00000   0.00000   0.00000  -0.00001
   24 Mn1     .XX       0.00157   0.00471   0.00000   0.00000   0.00000
   25 Mn1     .YY       0.00157   0.00471   0.00000   0.00000   0.00000
   26 Mn1     .ZZ       0.00157   0.00471   0.00000   0.00000   0.00000
   27 Mn1     .XY       0.00000   0.00000   0.00053   0.00000   0.00000
   28 Mn1     .XZ       0.00000   0.00000   0.00000   0.00053   0.00000
   29 Mn1     .YZ       0.00000   0.00000   0.00000   0.00000   0.00053
   30 Mn1     .XXX      0.00000   0.00000   0.00000   0.00000  -0.00007
   31 Mn1     .YYY      0.00000   0.00000   0.00000   0.00027   0.00000
   32 Mn1     .ZZZ      0.00000   0.00000  -0.00027   0.00000   0.00000
   33 Mn1     .XYY      0.00000   0.00000   0.00000   0.00000  -0.00018
   34 Mn1     .XXY      0.00000   0.00000   0.00000   0.00027   0.00000
   35 Mn1     .XXZ      0.00000   0.00000  -0.00018   0.00000   0.00000
   36 Mn1     .XZZ      0.00000   0.00000   0.00000   0.00000   0.00018
   37 Mn1     .YZZ      0.00000   0.00000   0.00000   0.00018   0.00000
   38 Mn1     .YYZ      0.00000   0.00000  -0.00018   0.00000   0.00000
   39 Mn1     .XYZ      0.00005   0.00048   0.00000   0.00000   0.00000
   40 O2      .S       -0.00002  -0.00003  -0.00004  -0.00004  -0.00004
   41 O2      .S       -0.00007  -0.00008  -0.00002  -0.00002  -0.00002
   42 O2      .X        0.00003   0.00015   0.00005   0.00005  -0.00009
   43 O2      .Y        0.00003   0.00015   0.00005  -0.00009   0.00005
   44 O2      .Z        0.00003   0.00015  -0.00009   0.00005   0.00005
   45 O2      .S        0.00028   0.00016   0.00091   0.00091   0.00091
   46 O2      .X       -0.00001   0.00026  -0.00007  -0.00007   0.00069
   47 O2      .Y       -0.00001   0.00026  -0.00007   0.00069  -0.00007
   48 O2      .Z       -0.00001   0.00026   0.00069  -0.00007  -0.00007
   49 O2      .XX      -0.00007  -0.00018  -0.00017  -0.00017  -0.00028
   50 O2      .YY      -0.00007  -0.00018  -0.00017  -0.00028  -0.00017
   51 O2      .ZZ      -0.00007  -0.00018  -0.00028  -0.00017  -0.00017
   52 O2      .XY      -0.00000  -0.00014  -0.00022  -0.00028  -0.00028
   53 O2      .XZ      -0.00000  -0.00014  -0.00028  -0.00022  -0.00028
   54 O2      .YZ      -0.00000  -0.00014  -0.00028  -0.00028  -0.00022
   55 O3      .S       -0.00002  -0.00003  -0.00004   0.00004   0.00004
   56 O3      .S       -0.00007  -0.00008  -0.00002   0.00002   0.00002
   57 O3      .X       -0.00003  -0.00015  -0.00005   0.00005  -0.00009
   58 O3      .Y       -0.00003  -0.00015  -0.00005  -0.00009   0.00005
   59 O3      .Z        0.00003   0.00015  -0.00009  -0.00005  -0.00005
   60 O3      .S        0.00028   0.00016   0.00091  -0.00091  -0.00091
   61 O3      .X        0.00001  -0.00026   0.00007  -0.00007   0.00069
   62 O3      .Y        0.00001  -0.00026   0.00007   0.00069  -0.00007
   63 O3      .Z       -0.00001   0.00026   0.00069   0.00007   0.00007
   64 O3      .XX      -0.00007  -0.00018  -0.00017   0.00017   0.00028
   65 O3      .YY      -0.00007  -0.00018  -0.00017   0.00028   0.00017
   66 O3      .ZZ      -0.00007  -0.00018  -0.00028   0.00017   0.00017
   67 O3      .XY      -0.00000  -0.00014  -0.00022   0.00028   0.00028
   68 O3      .XZ       0.00000   0.00014   0.00028  -0.00022  -0.00028
   69 O3      .YZ       0.00000   0.00014   0.00028  -0.00028  -0.00022
   70 O4      .S       -0.00002  -0.00003   0.00004  -0.00004   0.00004
   71 O4      .S       -0.00007  -0.00008   0.00002  -0.00002   0.00002
   72 O4      .X       -0.00003  -0.00015   0.00005  -0.00005  -0.00009
   73 O4      .Y        0.00003   0.00015  -0.00005  -0.00009  -0.00005
   74 O4      .Z       -0.00003  -0.00015  -0.00009  -0.00005   0.00005
   75 O4      .S        0.00028   0.00016  -0.00091   0.00091  -0.00091
   76 O4      .X        0.00001  -0.00026  -0.00007   0.00007   0.00069
   77 O4      .Y       -0.00001   0.00026   0.00007   0.00069   0.00007
   78 O4      .Z        0.00001  -0.00026   0.00069   0.00007  -0.00007
   79 O4      .XX      -0.00007  -0.00018   0.00017  -0.00017   0.00028
   80 O4      .YY      -0.00007  -0.00018   0.00017  -0.00028   0.00017
   81 O4      .ZZ      -0.00007  -0.00018   0.00028  -0.00017   0.00017
   82 O4      .XY       0.00000   0.00014  -0.00022   0.00028  -0.00028
   83 O4      .XZ      -0.00000  -0.00014   0.00028  -0.00022   0.00028
   84 O4      .YZ       0.00000   0.00014  -0.00028   0.00028  -0.00022
   85 O5      .S       -0.00002  -0.00003   0.00004   0.00004  -0.00004
   86 O5      .S       -0.00007  -0.00008   0.00002   0.00002  -0.00002
   87 O5      .X        0.00003   0.00015  -0.00005  -0.00005  -0.00009
   88 O5      .Y       -0.00003  -0.00015   0.00005  -0.00009  -0.00005
   89 O5      .Z       -0.00003  -0.00015  -0.00009   0.00005  -0.00005
   90 O5      .S        0.00028   0.00016  -0.00091  -0.00091   0.00091
   91 O5      .X       -0.00001   0.00026   0.00007   0.00007   0.00069
   92 O5      .Y        0.00001  -0.00026  -0.00007   0.00069   0.00007
   93 O5      .Z        0.00001  -0.00026   0.00069  -0.00007   0.00007
   94 O5      .XX      -0.00007  -0.00018   0.00017   0.00017  -0.00028
   95 O5      .YY      -0.00007  -0.00018   0.00017   0.00028  -0.00017
   96 O5      .ZZ      -0.00007  -0.00018   0.00028   0.00017  -0.00017
   97 O5      .XY       0.00000   0.00014  -0.00022  -0.00028   0.00028
   98 O5      .XZ       0.00000   0.00014  -0.00028  -0.00022   0.00028
   99 O5      .YZ      -0.00000  -0.00014   0.00028   0.00028  -0.00022
                           6         7         8         9        10
                           O         O         O         O         O    
     Eigenvalues --  -516.28502-516.28482-516.28482-516.28482 -85.24360
    1 Mn1     .S       -0.00002   0.00000   0.00000   0.00000  -0.11191
    2 Mn1     .S        0.00020   0.00000   0.00000   0.00000  -0.44304
    3 Mn1     .X        0.00000  -0.00007   0.00000   0.00000   0.00000
    4 Mn1     .Y        0.00000   0.00000  -0.00007   0.00000   0.00000
    5 Mn1     .Z        0.00000   0.00000   0.00000  -0.00007   0.00000
    6 Mn1     .S        0.00131   0.00000   0.00000   0.00000   1.10415
    7 Mn1     .X        0.00000  -0.00023   0.00000   0.00000   0.00000
    8 Mn1     .Y        0.00000   0.00000  -0.00023   0.00000   0.00000
    9 Mn1     .Z        0.00000   0.00000   0.00000  -0.00023   0.00000
   10 Mn1     .S        0.00351   0.00000   0.00000   0.00000   0.00791
   11 Mn1     .X        0.00000  -0.00082   0.00000   0.00000   0.00000
   12 Mn1     .Y        0.00000   0.00000  -0.00082   0.00000   0.00000
   13 Mn1     .Z        0.00000   0.00000   0.00000  -0.00082   0.00000
   14 Mn1     .S       -0.00049   0.00000   0.00000   0.00000   0.00204
   15 Mn1     .X        0.00000  -0.00044   0.00000   0.00000   0.00000
   16 Mn1     .Y        0.00000   0.00000  -0.00044   0.00000   0.00000
   17 Mn1     .Z        0.00000   0.00000   0.00000  -0.00044   0.00000
   18 Mn1     .XX       0.00014   0.00000   0.00000   0.00000   0.00838
   19 Mn1     .YY       0.00014   0.00000   0.00000   0.00000   0.00838
   20 Mn1     .ZZ       0.00014   0.00000   0.00000   0.00000   0.00838
   21 Mn1     .XY       0.00000   0.00000   0.00000   0.00013   0.00000
   22 Mn1     .XZ       0.00000   0.00000   0.00013   0.00000   0.00000
   23 Mn1     .YZ       0.00000   0.00013   0.00000   0.00000   0.00000
   24 Mn1     .XX       0.00006   0.00000   0.00000   0.00000   0.00756
   25 Mn1     .YY       0.00006   0.00000   0.00000   0.00000   0.00756
   26 Mn1     .ZZ       0.00006   0.00000   0.00000   0.00000   0.00756
   27 Mn1     .XY       0.00000   0.00000   0.00000   0.00019   0.00000
   28 Mn1     .XZ       0.00000   0.00000   0.00019   0.00000   0.00000
   29 Mn1     .YZ       0.00000   0.00019   0.00000   0.00000   0.00000
   30 Mn1     .XXX      0.00000  -0.00003   0.00000   0.00000   0.00000
   31 Mn1     .YYY      0.00000   0.00000   0.00013   0.00000   0.00000
   32 Mn1     .ZZZ      0.00000   0.00000   0.00000  -0.00013   0.00000
   33 Mn1     .XYY      0.00000  -0.00009   0.00000   0.00000   0.00000
   34 Mn1     .XXY      0.00000   0.00000   0.00013   0.00000   0.00000
   35 Mn1     .XXZ      0.00000   0.00000   0.00000  -0.00009   0.00000
   36 Mn1     .XZZ      0.00000   0.00009   0.00000   0.00000   0.00000
   37 Mn1     .YZZ      0.00000   0.00000   0.00009   0.00000   0.00000
   38 Mn1     .YYZ      0.00000   0.00000   0.00000  -0.00009   0.00000
   39 Mn1     .XYZ      0.00014   0.00000   0.00000   0.00000  -0.00193
   40 O2      .S        0.49638   0.49644   0.49644   0.49644   0.00223
   41 O2      .S        0.01278   0.01299   0.01299   0.01299  -0.00472
   42 O2      .X       -0.00013  -0.00014  -0.00012  -0.00012   0.00311
   43 O2      .Y       -0.00013  -0.00012  -0.00014  -0.00012   0.00311
   44 O2      .Z       -0.00013  -0.00012  -0.00012  -0.00014   0.00311
   45 O2      .S        0.00641   0.00506   0.00506   0.00506   0.00172
   46 O2      .X       -0.00025   0.00002  -0.00014  -0.00014   0.00024
   47 O2      .Y       -0.00025  -0.00014   0.00002  -0.00014   0.00024
   48 O2      .Z       -0.00025  -0.00014  -0.00014   0.00002   0.00024
   49 O2      .XX      -0.00406  -0.00392  -0.00389  -0.00389  -0.00102
   50 O2      .YY      -0.00406  -0.00389  -0.00392  -0.00389  -0.00102
   51 O2      .ZZ      -0.00406  -0.00389  -0.00389  -0.00392  -0.00102
   52 O2      .XY      -0.00001   0.00003   0.00003  -0.00001  -0.00115
   53 O2      .XZ      -0.00001   0.00003  -0.00001   0.00003  -0.00115
   54 O2      .YZ      -0.00001  -0.00001   0.00003   0.00003  -0.00115
   55 O3      .S        0.49638  -0.49644  -0.49644   0.49644   0.00223
   56 O3      .S        0.01278  -0.01299  -0.01299   0.01299  -0.00472
   57 O3      .X        0.00013  -0.00014  -0.00012   0.00012  -0.00311
   58 O3      .Y        0.00013  -0.00012  -0.00014   0.00012  -0.00311
   59 O3      .Z       -0.00013   0.00012   0.00012  -0.00014   0.00311
   60 O3      .S        0.00641  -0.00506  -0.00506   0.00506   0.00172
   61 O3      .X        0.00025   0.00002  -0.00014   0.00014  -0.00024
   62 O3      .Y        0.00025  -0.00014   0.00002   0.00014  -0.00024
   63 O3      .Z       -0.00025   0.00014   0.00014   0.00002   0.00024
   64 O3      .XX      -0.00406   0.00392   0.00389  -0.00389  -0.00102
   65 O3      .YY      -0.00406   0.00389   0.00392  -0.00389  -0.00102
   66 O3      .ZZ      -0.00406   0.00389   0.00389  -0.00392  -0.00102
   67 O3      .XY      -0.00001  -0.00003  -0.00003  -0.00001  -0.00115
   68 O3      .XZ       0.00001   0.00003  -0.00001  -0.00003   0.00115
   69 O3      .YZ       0.00001  -0.00001   0.00003  -0.00003   0.00115
   70 O4      .S        0.49638  -0.49644   0.49644  -0.49644   0.00223
   71 O4      .S        0.01278  -0.01299   0.01299  -0.01299  -0.00472
   72 O4      .X        0.00013  -0.00014   0.00012  -0.00012  -0.00311
   73 O4      .Y       -0.00013   0.00012  -0.00014   0.00012   0.00311
   74 O4      .Z        0.00013  -0.00012   0.00012  -0.00014  -0.00311
   75 O4      .S        0.00641  -0.00506   0.00506  -0.00506   0.00172
   76 O4      .X        0.00025   0.00002   0.00014  -0.00014  -0.00024
   77 O4      .Y       -0.00025   0.00014   0.00002   0.00014   0.00024
   78 O4      .Z        0.00025  -0.00014   0.00014   0.00002  -0.00024
   79 O4      .XX      -0.00406   0.00392  -0.00389   0.00389  -0.00102
   80 O4      .YY      -0.00406   0.00389  -0.00392   0.00389  -0.00102
   81 O4      .ZZ      -0.00406   0.00389  -0.00389   0.00392  -0.00102
   82 O4      .XY       0.00001   0.00003  -0.00003  -0.00001   0.00115
   83 O4      .XZ      -0.00001  -0.00003  -0.00001  -0.00003  -0.00115
   84 O4      .YZ       0.00001  -0.00001  -0.00003   0.00003   0.00115
   85 O5      .S        0.49638   0.49644  -0.49644  -0.49644   0.00223
   86 O5      .S        0.01278   0.01299  -0.01299  -0.01299  -0.00472
   87 O5      .X       -0.00013  -0.00014   0.00012   0.00012   0.00311
   88 O5      .Y        0.00013   0.00012  -0.00014  -0.00012  -0.00311
   89 O5      .Z        0.00013   0.00012  -0.00012  -0.00014  -0.00311
   90 O5      .S        0.00641   0.00506  -0.00506  -0.00506   0.00172
   91 O5      .X       -0.00025   0.00002   0.00014   0.00014   0.00024
   92 O5      .Y        0.00025   0.00014   0.00002  -0.00014  -0.00024
   93 O5      .Z        0.00025   0.00014  -0.00014   0.00002  -0.00024
   94 O5      .XX      -0.00406  -0.00392   0.00389   0.00389  -0.00102
   95 O5      .YY      -0.00406  -0.00389   0.00392   0.00389  -0.00102
   96 O5      .ZZ      -0.00406  -0.00389   0.00389   0.00392  -0.00102
   97 O5      .XY       0.00001  -0.00003   0.00003  -0.00001   0.00115
   98 O5      .XZ       0.00001  -0.00003  -0.00001   0.00003   0.00115
   99 O5      .YZ      -0.00001  -0.00001  -0.00003  -0.00003  -0.00115
                          11        12        13        14        15
                           O         O         O         O         O    
     Eigenvalues --   -54.11890 -54.11890 -54.11890 -20.02232 -19.43257
    1 Mn1     .S        0.00000   0.00000   0.00000  -0.01904   0.00000
    2 Mn1     .S        0.00000   0.00000   0.00000  -0.06118   0.00000
    3 Mn1     .X        0.00000   0.00000  -0.36610   0.00000   0.00000
    4 Mn1     .Y        0.00000  -0.36610   0.00000   0.00000   0.00000
    5 Mn1     .Z       -0.36610   0.00000   0.00000   0.00000   0.05773
    6 Mn1     .S        0.00000   0.00000   0.00000   0.25416   0.00000
    7 Mn1     .X        0.00000   0.00000   1.05025   0.00000   0.00000
    8 Mn1     .Y        0.00000   1.05025   0.00000   0.00000   0.00000
    9 Mn1     .Z        1.05025   0.00000   0.00000   0.00000  -0.17371
   10 Mn1     .S        0.00000   0.00000   0.00000   0.06026   0.00000
   11 Mn1     .X        0.00000   0.00000  -0.02272   0.00000   0.00000
   12 Mn1     .Y        0.00000  -0.02272   0.00000   0.00000   0.00000
   13 Mn1     .Z       -0.02272   0.00000   0.00000   0.00000   0.02838
   14 Mn1     .S        0.00000   0.00000   0.00000   0.03869   0.00000
   15 Mn1     .X        0.00000   0.00000   0.00754   0.00000   0.00000
   16 Mn1     .Y        0.00000   0.00754   0.00000   0.00000   0.00000
   17 Mn1     .Z        0.00754   0.00000   0.00000   0.00000  -0.00346
   18 Mn1     .XX       0.00000   0.00000   0.00000   0.00293   0.00000
   19 Mn1     .YY       0.00000   0.00000   0.00000   0.00293   0.00000
   20 Mn1     .ZZ       0.00000   0.00000   0.00000   0.00293   0.00000
   21 Mn1     .XY       0.00146   0.00000   0.00000   0.00000   0.11852
   22 Mn1     .XZ       0.00000   0.00146   0.00000   0.00000   0.00000
   23 Mn1     .YZ       0.00000   0.00000   0.00146   0.00000   0.00000
   24 Mn1     .XX       0.00000   0.00000   0.00000   0.02620   0.00000
   25 Mn1     .YY       0.00000   0.00000   0.00000   0.02620   0.00000
   26 Mn1     .ZZ       0.00000   0.00000   0.00000   0.02620   0.00000
   27 Mn1     .XY       0.00617   0.00000   0.00000   0.00000   0.07667
   28 Mn1     .XZ       0.00000   0.00617   0.00000   0.00000   0.00000
   29 Mn1     .YZ       0.00000   0.00000   0.00617   0.00000   0.00000
   30 Mn1     .XXX      0.00000   0.00000  -0.00057   0.00000   0.00000
   31 Mn1     .YYY      0.00000   0.00229   0.00000   0.00000   0.00000
   32 Mn1     .ZZZ     -0.00229   0.00000   0.00000   0.00000  -0.01057
   33 Mn1     .XYY      0.00000   0.00000  -0.00154   0.00000   0.00000
   34 Mn1     .XXY      0.00000   0.00231   0.00000   0.00000   0.00000
   35 Mn1     .XXZ     -0.00154   0.00000   0.00000   0.00000  -0.00709
   36 Mn1     .XZZ      0.00000   0.00000   0.00154   0.00000   0.00000
   37 Mn1     .YZZ      0.00000   0.00154   0.00000   0.00000   0.00000
   38 Mn1     .YYZ     -0.00154   0.00000   0.00000   0.00000  -0.00709
   39 Mn1     .XYZ      0.00000   0.00000   0.00000   0.01828   0.00000
   40 O2      .S       -0.00671  -0.00671  -0.00671  -0.11306  -0.11411
   41 O2      .S        0.01306   0.01306   0.01306   0.24546   0.25434
   42 O2      .X       -0.00878  -0.00878  -0.00548  -0.02206  -0.01912
   43 O2      .Y       -0.00878  -0.00548  -0.00878  -0.02206  -0.01912
   44 O2      .Z       -0.00548  -0.00878  -0.00878  -0.02206  -0.02104
   45 O2      .S        0.00847   0.00847   0.00847   0.28556   0.26534
   46 O2      .X       -0.00215  -0.00215   0.00314  -0.01966  -0.01269
   47 O2      .Y       -0.00215   0.00314  -0.00215  -0.01966  -0.01269
   48 O2      .Z        0.00314  -0.00215  -0.00215  -0.01966  -0.01483
   49 O2      .XX       0.00113   0.00113  -0.00120  -0.00254  -0.00007
   50 O2      .YY       0.00113  -0.00120   0.00113  -0.00254  -0.00007
   51 O2      .ZZ      -0.00120   0.00113   0.00113  -0.00254  -0.00096
   52 O2      .XY       0.00178   0.00051   0.00051   0.00278   0.00487
   53 O2      .XZ       0.00051   0.00178   0.00051   0.00278   0.00385
   54 O2      .YZ       0.00051   0.00051   0.00178   0.00278   0.00385
   55 O3      .S       -0.00671   0.00671   0.00671  -0.11306  -0.11411
   56 O3      .S        0.01306  -0.01306  -0.01306   0.24546   0.25434
   57 O3      .X        0.00878  -0.00878  -0.00548   0.02206   0.01912
   58 O3      .Y        0.00878  -0.00548  -0.00878   0.02206   0.01912
   59 O3      .Z       -0.00548   0.00878   0.00878  -0.02206  -0.02104
   60 O3      .S        0.00847  -0.00847  -0.00847   0.28556   0.26534
   61 O3      .X        0.00215  -0.00215   0.00314   0.01966   0.01269
   62 O3      .Y        0.00215   0.00314  -0.00215   0.01966   0.01269
   63 O3      .Z        0.00314   0.00215   0.00215  -0.01966  -0.01483
   64 O3      .XX       0.00113  -0.00113   0.00120  -0.00254  -0.00007
   65 O3      .YY       0.00113   0.00120  -0.00113  -0.00254  -0.00007
   66 O3      .ZZ      -0.00120  -0.00113  -0.00113  -0.00254  -0.00096
   67 O3      .XY       0.00178  -0.00051  -0.00051   0.00278   0.00487
   68 O3      .XZ      -0.00051   0.00178   0.00051  -0.00278  -0.00385
   69 O3      .YZ      -0.00051   0.00051   0.00178  -0.00278  -0.00385
   70 O4      .S        0.00671  -0.00671   0.00671  -0.11306   0.11411
   71 O4      .S       -0.01306   0.01306  -0.01306   0.24546  -0.25434
   72 O4      .X       -0.00878   0.00878  -0.00548   0.02206  -0.01912
   73 O4      .Y        0.00878  -0.00548   0.00878  -0.02206   0.01912
   74 O4      .Z       -0.00548   0.00878  -0.00878   0.02206  -0.02104
   75 O4      .S       -0.00847   0.00847  -0.00847   0.28556  -0.26534
   76 O4      .X       -0.00215   0.00215   0.00314   0.01966  -0.01269
   77 O4      .Y        0.00215   0.00314   0.00215  -0.01966   0.01269
   78 O4      .Z        0.00314   0.00215  -0.00215   0.01966  -0.01483
   79 O4      .XX      -0.00113   0.00113   0.00120  -0.00254   0.00007
   80 O4      .YY      -0.00113  -0.00120  -0.00113  -0.00254   0.00007
   81 O4      .ZZ       0.00120   0.00113  -0.00113  -0.00254   0.00096
   82 O4      .XY       0.00178  -0.00051   0.00051  -0.00278   0.00487
   83 O4      .XZ      -0.00051   0.00178  -0.00051   0.00278  -0.00385
   84 O4      .YZ       0.00051  -0.00051   0.00178  -0.00278   0.00385
   85 O5      .S        0.00671   0.00671  -0.00671  -0.11306   0.11411
   86 O5      .S       -0.01306  -0.01306   0.01306   0.24546  -0.25434
   87 O5      .X        0.00878   0.00878  -0.00548  -0.02206   0.01912
   88 O5      .Y       -0.00878  -0.00548   0.00878   0.02206  -0.01912
   89 O5      .Z       -0.00548  -0.00878   0.00878   0.02206  -0.02104
   90 O5      .S       -0.00847  -0.00847   0.00847   0.28556  -0.26534
   91 O5      .X        0.00215   0.00215   0.00314  -0.01966   0.01269
   92 O5      .Y       -0.00215   0.00314   0.00215   0.01966  -0.01269
   93 O5      .Z        0.00314  -0.00215   0.00215   0.01966  -0.01483
   94 O5      .XX      -0.00113  -0.00113  -0.00120  -0.00254   0.00007
   95 O5      .YY      -0.00113   0.00120   0.00113  -0.00254   0.00007
   96 O5      .ZZ       0.00120  -0.00113   0.00113  -0.00254   0.00096
   97 O5      .XY       0.00178   0.00051  -0.00051  -0.00278   0.00487
   98 O5      .XZ       0.00051   0.00178  -0.00051  -0.00278   0.00385
   99 O5      .YZ      -0.00051  -0.00051   0.00178   0.00278  -0.00385
                          16        17        18        19        20
                           O         O         O         O         O    
     Eigenvalues --   -19.43257 -19.43257  -6.58815  -6.58815  -6.58815
    1 Mn1     .S        0.00000   0.00000   0.00000   0.00000   0.00000
    2 Mn1     .S        0.00000   0.00000   0.00000   0.00000   0.00000
    3 Mn1     .X        0.00000   0.05773   0.00989   0.00000   0.00000
    4 Mn1     .Y        0.05773   0.00000   0.00000   0.00989   0.00000
    5 Mn1     .Z        0.00000   0.00000   0.00000   0.00000   0.00989
    6 Mn1     .S        0.00000   0.00000   0.00000   0.00000   0.00000
    7 Mn1     .X        0.00000  -0.17371  -0.04237   0.00000   0.00000
    8 Mn1     .Y       -0.17371   0.00000   0.00000  -0.04237   0.00000
    9 Mn1     .Z        0.00000   0.00000   0.00000   0.00000  -0.04237
   10 Mn1     .S        0.00000   0.00000   0.00000   0.00000   0.00000
   11 Mn1     .X        0.00000   0.02838  -0.02108   0.00000   0.00000
   12 Mn1     .Y        0.02838   0.00000   0.00000  -0.02108   0.00000
   13 Mn1     .Z        0.00000   0.00000   0.00000   0.00000  -0.02108
   14 Mn1     .S        0.00000   0.00000   0.00000   0.00000   0.00000
   15 Mn1     .X        0.00000  -0.00346  -0.07412   0.00000   0.00000
   16 Mn1     .Y       -0.00346   0.00000   0.00000  -0.07412   0.00000
   17 Mn1     .Z        0.00000   0.00000   0.00000   0.00000  -0.07412
   18 Mn1     .XX       0.00000   0.00000   0.00000   0.00000   0.00000
   19 Mn1     .YY       0.00000   0.00000   0.00000   0.00000   0.00000
   20 Mn1     .ZZ       0.00000   0.00000   0.00000   0.00000   0.00000
   21 Mn1     .XY       0.00000   0.00000   0.00000   0.00000   0.45951
   22 Mn1     .XZ       0.11852   0.00000   0.00000   0.45951   0.00000
   23 Mn1     .YZ       0.00000   0.11852   0.45951   0.00000   0.00000
   24 Mn1     .XX       0.00000   0.00000   0.00000   0.00000   0.00000
   25 Mn1     .YY       0.00000   0.00000   0.00000   0.00000   0.00000
   26 Mn1     .ZZ       0.00000   0.00000   0.00000   0.00000   0.00000
   27 Mn1     .XY       0.00000   0.00000   0.00000   0.00000   0.27577
   28 Mn1     .XZ       0.07667   0.00000   0.00000   0.27577   0.00000
   29 Mn1     .YZ       0.00000   0.07667   0.27577   0.00000   0.00000
   30 Mn1     .XXX      0.00000  -0.00264  -0.00320   0.00000   0.00000
   31 Mn1     .YYY      0.01057   0.00000   0.00000   0.01279   0.00000
   32 Mn1     .ZZZ      0.00000   0.00000   0.00000   0.00000  -0.01279
   33 Mn1     .XYY      0.00000  -0.00709  -0.00858   0.00000   0.00000
   34 Mn1     .XXY      0.01063   0.00000   0.00000   0.01287   0.00000
   35 Mn1     .XXZ      0.00000   0.00000   0.00000   0.00000  -0.00858
   36 Mn1     .XZZ      0.00000   0.00709   0.00858   0.00000   0.00000
   37 Mn1     .YZZ      0.00709   0.00000   0.00000   0.00858   0.00000
   38 Mn1     .YYZ      0.00000   0.00000   0.00000   0.00000  -0.00858
   39 Mn1     .XYZ      0.00000   0.00000   0.00000   0.00000   0.00000
   40 O2      .S       -0.11411  -0.11411   0.02145   0.02145   0.02145
   41 O2      .S        0.25434   0.25434  -0.04716  -0.04716  -0.04716
   42 O2      .X       -0.01912  -0.02104  -0.21024  -0.06583  -0.06583
   43 O2      .Y       -0.02104  -0.01912  -0.06583  -0.21024  -0.06583
   44 O2      .Z       -0.01912  -0.01912  -0.06583  -0.06583  -0.21024
   45 O2      .S        0.26534   0.26534  -0.07930  -0.07930  -0.07930
   46 O2      .X       -0.01269  -0.01483  -0.12762  -0.03077  -0.03077
   47 O2      .Y       -0.01483  -0.01269  -0.03077  -0.12762  -0.03077
   48 O2      .Z       -0.01269  -0.01269  -0.03077  -0.03077  -0.12762
   49 O2      .XX      -0.00007  -0.00096   0.00959  -0.00150  -0.00150
   50 O2      .YY      -0.00096  -0.00007  -0.00150   0.00959  -0.00150
   51 O2      .ZZ      -0.00007  -0.00007  -0.00150  -0.00150   0.00959
   52 O2      .XY       0.00385   0.00385   0.00629   0.00629   0.00316
   53 O2      .XZ       0.00487   0.00385   0.00629   0.00316   0.00629
   54 O2      .YZ       0.00385   0.00487   0.00316   0.00629   0.00629
   55 O3      .S        0.11411   0.11411  -0.02145  -0.02145   0.02145
   56 O3      .S       -0.25434  -0.25434   0.04716   0.04716  -0.04716
   57 O3      .X       -0.01912  -0.02104  -0.21024  -0.06583   0.06583
   58 O3      .Y       -0.02104  -0.01912  -0.06583  -0.21024   0.06583
   59 O3      .Z        0.01912   0.01912   0.06583   0.06583  -0.21024
   60 O3      .S       -0.26534  -0.26534   0.07930   0.07930  -0.07930
   61 O3      .X       -0.01269  -0.01483  -0.12762  -0.03077   0.03077
   62 O3      .Y       -0.01483  -0.01269  -0.03077  -0.12762   0.03077
   63 O3      .Z        0.01269   0.01269   0.03077   0.03077  -0.12762
   64 O3      .XX       0.00007   0.00096  -0.00959   0.00150  -0.00150
   65 O3      .YY       0.00096   0.00007   0.00150  -0.00959  -0.00150
   66 O3      .ZZ       0.00007   0.00007   0.00150   0.00150   0.00959
   67 O3      .XY      -0.00385  -0.00385  -0.00629  -0.00629   0.00316
   68 O3      .XZ       0.00487   0.00385   0.00629   0.00316  -0.00629
   69 O3      .YZ       0.00385   0.00487   0.00316   0.00629  -0.00629
   70 O4      .S       -0.11411   0.11411  -0.02145   0.02145  -0.02145
   71 O4      .S        0.25434  -0.25434   0.04716  -0.04716   0.04716
   72 O4      .X        0.01912  -0.02104  -0.21024   0.06583  -0.06583
   73 O4      .Y       -0.02104   0.01912   0.06583  -0.21024   0.06583
   74 O4      .Z        0.01912  -0.01912  -0.06583   0.06583  -0.21024
   75 O4      .S        0.26534  -0.26534   0.07930  -0.07930   0.07930
   76 O4      .X        0.01269  -0.01483  -0.12762   0.03077  -0.03077
   77 O4      .Y       -0.01483   0.01269   0.03077  -0.12762   0.03077
   78 O4      .Z        0.01269  -0.01269  -0.03077   0.03077  -0.12762
   79 O4      .XX      -0.00007   0.00096  -0.00959  -0.00150   0.00150
   80 O4      .YY      -0.00096   0.00007   0.00150   0.00959   0.00150
   81 O4      .ZZ      -0.00007   0.00007   0.00150  -0.00150  -0.00959
   82 O4      .XY      -0.00385   0.00385   0.00629  -0.00629   0.00316
   83 O4      .XZ       0.00487  -0.00385  -0.00629   0.00316  -0.00629
   84 O4      .YZ      -0.00385   0.00487   0.00316  -0.00629   0.00629
   85 O5      .S        0.11411  -0.11411   0.02145  -0.02145  -0.02145
   86 O5      .S       -0.25434   0.25434  -0.04716   0.04716   0.04716
   87 O5      .X        0.01912  -0.02104  -0.21024   0.06583   0.06583
   88 O5      .Y       -0.02104   0.01912   0.06583  -0.21024  -0.06583
   89 O5      .Z       -0.01912   0.01912   0.06583  -0.06583  -0.21024
   90 O5      .S       -0.26534   0.26534  -0.07930   0.07930   0.07930
   91 O5      .X        0.01269  -0.01483  -0.12762   0.03077   0.03077
   92 O5      .Y       -0.01483   0.01269   0.03077  -0.12762  -0.03077
   93 O5      .Z       -0.01269   0.01269   0.03077  -0.03077  -0.12762
   94 O5      .XX       0.00007  -0.00096   0.00959   0.00150   0.00150
   95 O5      .YY       0.00096  -0.00007  -0.00150  -0.00959   0.00150
   96 O5      .ZZ       0.00007  -0.00007  -0.00150   0.00150  -0.00959
   97 O5      .XY       0.00385  -0.00385  -0.00629   0.00629   0.00316
   98 O5      .XZ       0.00487  -0.00385  -0.00629   0.00316   0.00629
   99 O5      .YZ      -0.00385   0.00487   0.00316  -0.00629  -0.00629
                          21        22        23        24        25
                           O         O         O         O         O    
     Eigenvalues --    -6.38186  -6.38186  -4.44435  -3.79361  -3.79361
    1 Mn1     .S        0.00000   0.00000  -0.02257   0.00000   0.00000
    2 Mn1     .S        0.00000   0.00000  -0.08059   0.00000   0.00000
    3 Mn1     .X        0.00000   0.00000   0.00000   0.00000   0.00000
    4 Mn1     .Y        0.00000   0.00000   0.00000  -0.06437   0.00000
    5 Mn1     .Z        0.00000   0.00000   0.00000   0.00000  -0.06437
    6 Mn1     .S       -0.00000  -0.00000   0.31785   0.00000   0.00000
    7 Mn1     .X        0.00000   0.00000   0.00000   0.00000   0.00000
    8 Mn1     .Y        0.00000   0.00000   0.00000   0.15479   0.00000
    9 Mn1     .Z        0.00000   0.00000   0.00000   0.00000   0.15479
   10 Mn1     .S        0.00000   0.00000  -0.21495   0.00000   0.00000
   11 Mn1     .X        0.00000   0.00000   0.00000   0.00000   0.00000
   12 Mn1     .Y        0.00000   0.00000   0.00000  -0.14323   0.00000
   13 Mn1     .Z        0.00000   0.00000   0.00000   0.00000  -0.14323
   14 Mn1     .S        0.00000   0.00000  -0.13076   0.00000   0.00000
   15 Mn1     .X        0.00000   0.00000   0.00000   0.00000   0.00000
   16 Mn1     .Y        0.00000   0.00000   0.00000  -0.02171   0.00000
   17 Mn1     .Z        0.00000   0.00000   0.00000   0.00000  -0.02171
   18 Mn1     .XX      -0.03392   0.45342   0.01567   0.00000   0.00000
   19 Mn1     .YY       0.40964  -0.19734   0.01567   0.00000   0.00000
   20 Mn1     .ZZ      -0.37572  -0.25609   0.01567   0.00000   0.00000
   21 Mn1     .XY       0.00000   0.00000   0.00000   0.00000  -0.04506
   22 Mn1     .XZ       0.00000   0.00000   0.00000  -0.04506   0.00000
   23 Mn1     .YZ       0.00000   0.00000   0.00000   0.00000   0.00000
   24 Mn1     .XX      -0.02091   0.27958   0.03392   0.00000   0.00000
   25 Mn1     .YY       0.25258  -0.12168   0.03392   0.00000   0.00000
   26 Mn1     .ZZ      -0.23166  -0.15790   0.03392   0.00000   0.00000
   27 Mn1     .XY       0.00000   0.00000   0.00000   0.00000  -0.00288
   28 Mn1     .XZ       0.00000   0.00000   0.00000  -0.00288   0.00000
   29 Mn1     .YZ       0.00000   0.00000   0.00000   0.00000   0.00000
   30 Mn1     .XXX      0.00000   0.00000   0.00000   0.00000   0.00000
   31 Mn1     .YYY      0.00000   0.00000   0.00000   0.00467   0.00000
   32 Mn1     .ZZZ      0.00000   0.00000   0.00000   0.00000  -0.00467
   33 Mn1     .XYY      0.00000   0.00000   0.00000   0.00000   0.00000
   34 Mn1     .XXY      0.00000   0.00000   0.00000   0.00470   0.00000
   35 Mn1     .XXZ      0.00000   0.00000   0.00000   0.00000  -0.00313
   36 Mn1     .XZZ      0.00000   0.00000   0.00000   0.00000   0.00000
   37 Mn1     .YZZ      0.00000   0.00000   0.00000   0.00313   0.00000
   38 Mn1     .YYZ      0.00000   0.00000   0.00000   0.00000  -0.00313
   39 Mn1     .XYZ     -0.00000  -0.00000   0.02105   0.00000   0.00000
   40 O2      .S       -0.00000   0.00000   0.02408  -0.01282  -0.01282
   41 O2      .S        0.00000  -0.00000  -0.04906   0.02041   0.02041
   42 O2      .X       -0.01324   0.17695  -0.17687   0.20314   0.20314
   43 O2      .Y        0.15987  -0.07701  -0.17687  -0.10932   0.20314
   44 O2      .Z       -0.14663  -0.09994  -0.17687   0.20314  -0.10932
   45 O2      .S        0.00000  -0.00000  -0.10708   0.07935   0.07935
   46 O2      .X       -0.00992   0.13256  -0.11288   0.14719   0.14719
   47 O2      .Y        0.11976  -0.05769  -0.11288  -0.07562   0.14719
   48 O2      .Z       -0.10984  -0.07487  -0.11288   0.14719  -0.07562
   49 O2      .XX       0.00076  -0.01012   0.00452  -0.01064  -0.01064
   50 O2      .YY      -0.00914   0.00440   0.00452   0.00296  -0.01064
   51 O2      .ZZ       0.00838   0.00571   0.00452  -0.01064   0.00296
   52 O2      .XY      -0.00729  -0.00497   0.00398  -0.00144  -0.00892
   53 O2      .XZ       0.00795  -0.00383   0.00398  -0.00892  -0.00144
   54 O2      .YZ      -0.00066   0.00880   0.00398  -0.00144  -0.00144
   55 O3      .S       -0.00000   0.00000   0.02408   0.01282  -0.01282
   56 O3      .S        0.00000  -0.00000  -0.04906  -0.02041   0.02041
   57 O3      .X        0.01324  -0.17695   0.17687   0.20314  -0.20314
   58 O3      .Y       -0.15987   0.07701   0.17687  -0.10932  -0.20314
   59 O3      .Z       -0.14663  -0.09994  -0.17687  -0.20314  -0.10932
   60 O3      .S        0.00000  -0.00000  -0.10708  -0.07935   0.07935
   61 O3      .X        0.00992  -0.13256   0.11288   0.14719  -0.14719
   62 O3      .Y       -0.11976   0.05769   0.11288  -0.07562  -0.14719
   63 O3      .Z       -0.10984  -0.07487  -0.11288  -0.14719  -0.07562
   64 O3      .XX       0.00076  -0.01012   0.00452   0.01064  -0.01064
   65 O3      .YY      -0.00914   0.00440   0.00452  -0.00296  -0.01064
   66 O3      .ZZ       0.00838   0.00571   0.00452   0.01064   0.00296
   67 O3      .XY      -0.00729  -0.00497   0.00398   0.00144  -0.00892
   68 O3      .XZ      -0.00795   0.00383  -0.00398  -0.00892   0.00144
   69 O3      .YZ       0.00066  -0.00880  -0.00398  -0.00144   0.00144
   70 O4      .S       -0.00000   0.00000   0.02408  -0.01282   0.01282
   71 O4      .S        0.00000  -0.00000  -0.04906   0.02041  -0.02041
   72 O4      .X        0.01324  -0.17695   0.17687  -0.20314   0.20314
   73 O4      .Y        0.15987  -0.07701  -0.17687  -0.10932  -0.20314
   74 O4      .Z        0.14663   0.09994   0.17687  -0.20314  -0.10932
   75 O4      .S        0.00000  -0.00000  -0.10708   0.07935  -0.07935
   76 O4      .X        0.00992  -0.13256   0.11288  -0.14719   0.14719
   77 O4      .Y        0.11976  -0.05769  -0.11288  -0.07562  -0.14719
   78 O4      .Z        0.10984   0.07487   0.11288  -0.14719  -0.07562
   79 O4      .XX       0.00076  -0.01012   0.00452  -0.01064   0.01064
   80 O4      .YY      -0.00914   0.00440   0.00452   0.00296   0.01064
   81 O4      .ZZ       0.00838   0.00571   0.00452  -0.01064  -0.00296
   82 O4      .XY       0.00729   0.00497  -0.00398   0.00144  -0.00892
   83 O4      .XZ       0.00795  -0.00383   0.00398  -0.00892   0.00144
   84 O4      .YZ       0.00066  -0.00880  -0.00398   0.00144  -0.00144
   85 O5      .S       -0.00000   0.00000   0.02408   0.01282   0.01282
   86 O5      .S        0.00000  -0.00000  -0.04906  -0.02041  -0.02041
   87 O5      .X       -0.01324   0.17695  -0.17687  -0.20314  -0.20314
   88 O5      .Y       -0.15987   0.07701   0.17687  -0.10932   0.20314
   89 O5      .Z        0.14663   0.09994   0.17687   0.20314  -0.10932
   90 O5      .S        0.00000  -0.00000  -0.10708  -0.07935  -0.07935
   91 O5      .X       -0.00992   0.13256  -0.11288  -0.14719  -0.14719
   92 O5      .Y       -0.11976   0.05769   0.11288  -0.07562   0.14719
   93 O5      .Z        0.10984   0.07487   0.11288   0.14719  -0.07562
   94 O5      .XX       0.00076  -0.01012   0.00452   0.01064   0.01064
   95 O5      .YY      -0.00914   0.00440   0.00452  -0.00296   0.01064
   96 O5      .ZZ       0.00838   0.00571   0.00452   0.01064  -0.00296
   97 O5      .XY       0.00729   0.00497  -0.00398  -0.00144  -0.00892
   98 O5      .XZ      -0.00795   0.00383  -0.00398  -0.00892  -0.00144
   99 O5      .YZ      -0.00066   0.00880   0.00398   0.00144   0.00144
                          26        27        28        29        30
                           O         O         O         O         V    
     Eigenvalues --    -3.79361  -2.32298  -2.32298  -2.32298   1.89400
    1 Mn1     .S        0.00000   0.00000   0.00000   0.00000  -0.00000
    2 Mn1     .S        0.00000   0.00000   0.00000   0.00000  -0.00000
    3 Mn1     .X       -0.06437   0.00000   0.00000   0.00000   0.00000
    4 Mn1     .Y        0.00000   0.00000   0.00000   0.00000   0.00000
    5 Mn1     .Z        0.00000  -0.00000   0.00000   0.00000   0.00000
    6 Mn1     .S        0.00000   0.00000   0.00000   0.00000   0.00000
    7 Mn1     .X        0.15479   0.00000  -0.00000   0.00000   0.00000
    8 Mn1     .Y        0.00000   0.00000   0.00000  -0.00000   0.00000
    9 Mn1     .Z        0.00000   0.00000   0.00000   0.00000   0.00000
   10 Mn1     .S        0.00000   0.00000   0.00000   0.00000  -0.00000
   11 Mn1     .X       -0.14323   0.00000   0.00000   0.00000   0.00000
   12 Mn1     .Y        0.00000   0.00000   0.00000   0.00000   0.00000
   13 Mn1     .Z        0.00000  -0.00000   0.00000   0.00000   0.00000
   14 Mn1     .S        0.00000   0.00000   0.00000   0.00000   0.00000
   15 Mn1     .X       -0.02171   0.00000   0.00000   0.00000   0.00000
   16 Mn1     .Y        0.00000   0.00000   0.00000  -0.00000   0.00000
   17 Mn1     .Z        0.00000  -0.00000   0.00000   0.00000   0.00000
   18 Mn1     .XX       0.00000   0.00000   0.00000   0.00000  -0.06854
   19 Mn1     .YY       0.00000   0.00000   0.00000   0.00000   0.55607
   20 Mn1     .ZZ       0.00000   0.00000   0.00000   0.00000  -0.48753
   21 Mn1     .XY       0.00000   0.00000   0.00000   0.00000   0.00000
   22 Mn1     .XZ       0.00000   0.00000   0.00000   0.00000   0.00000
   23 Mn1     .YZ      -0.04506   0.00000  -0.00000   0.00000   0.00000
   24 Mn1     .XX       0.00000   0.00000   0.00000   0.00000  -0.03688
   25 Mn1     .YY       0.00000   0.00000   0.00000   0.00000   0.29921
   26 Mn1     .ZZ       0.00000   0.00000   0.00000   0.00000  -0.26233
   27 Mn1     .XY       0.00000   0.00000   0.00000   0.00000   0.00000
   28 Mn1     .XZ       0.00000   0.00000   0.00000   0.00000   0.00000
   29 Mn1     .YZ      -0.00288   0.00000  -0.00000   0.00000   0.00000
   30 Mn1     .XXX     -0.00117   0.00000  -0.02665   0.00000   0.00000
   31 Mn1     .YYY      0.00000   0.00000   0.00000  -0.00000   0.00000
   32 Mn1     .ZZZ      0.00000  -0.00000   0.00000   0.00000   0.00000
   33 Mn1     .XYY     -0.00313   0.00000  -0.02384   0.00000   0.00000
   34 Mn1     .XXY      0.00000   0.00000   0.00000   0.01192   0.00000
   35 Mn1     .XXZ      0.00000   0.02384   0.00000   0.00000   0.00000
   36 Mn1     .XZZ      0.00313   0.00000  -0.02384   0.00000   0.00000
   37 Mn1     .YZZ      0.00000   0.00000   0.00000  -0.02384   0.00000
   38 Mn1     .YYZ      0.00000   0.02384   0.00000   0.00000   0.00000
   39 Mn1     .XYZ      0.00000   0.00000   0.00000   0.00000  -0.00000
   40 O2      .S       -0.01282   0.00000   0.00000   0.00000   0.00000
   41 O2      .S        0.02041  -0.00000  -0.00000  -0.00000  -0.00000
   42 O2      .X       -0.10932   0.23926   0.00000   0.23926   0.02208
   43 O2      .Y        0.20314  -0.23926   0.23926   0.00000  -0.17916
   44 O2      .Z        0.20314  -0.00000  -0.23926  -0.23926   0.15707
   45 O2      .S        0.07935  -0.00000  -0.00000  -0.00000  -0.00000
   46 O2      .X       -0.07562   0.17538   0.00000   0.17538   0.01744
   47 O2      .Y        0.14719  -0.17538   0.17538   0.00000  -0.14152
   48 O2      .Z        0.14719  -0.00000  -0.17538  -0.17538   0.12407
   49 O2      .XX       0.00296  -0.00787  -0.00000  -0.00787   0.00026
   50 O2      .YY      -0.01064   0.00787  -0.00787  -0.00000  -0.00214
   51 O2      .ZZ      -0.01064  -0.00000   0.00787   0.00787   0.00187
   52 O2      .XY      -0.00144  -0.00000  -0.00339  -0.00339  -0.00237
   53 O2      .XZ      -0.00144  -0.00339   0.00339  -0.00000   0.00271
   54 O2      .YZ      -0.00892   0.00339   0.00000   0.00339  -0.00033
   55 O3      .S        0.01282   0.00000  -0.00000  -0.00000   0.00000
   56 O3      .S       -0.02041  -0.00000   0.00000   0.00000  -0.00000
   57 O3      .X       -0.10932  -0.23926   0.00000   0.23926  -0.02208
   58 O3      .Y        0.20314   0.23926   0.23926   0.00000   0.17916
   59 O3      .Z       -0.20314  -0.00000   0.23926   0.23926   0.15707
   60 O3      .S       -0.07935  -0.00000   0.00000   0.00000  -0.00000
   61 O3      .X       -0.07562  -0.17538   0.00000   0.17538  -0.01744
   62 O3      .Y        0.14719   0.17538   0.17538   0.00000   0.14152
   63 O3      .Z       -0.14719  -0.00000   0.17538   0.17538   0.12407
   64 O3      .XX      -0.00296  -0.00787   0.00000   0.00787   0.00026
   65 O3      .YY       0.01064   0.00787   0.00787   0.00000  -0.00214
   66 O3      .ZZ       0.01064  -0.00000  -0.00787  -0.00787   0.00187
   67 O3      .XY       0.00144  -0.00000   0.00339   0.00339  -0.00237
   68 O3      .XZ      -0.00144   0.00339   0.00339  -0.00000  -0.00271
   69 O3      .YZ      -0.00892  -0.00339   0.00000   0.00339   0.00033
   70 O4      .S        0.01282  -0.00000  -0.00000   0.00000   0.00000
   71 O4      .S       -0.02041   0.00000   0.00000  -0.00000  -0.00000
   72 O4      .X       -0.10932   0.23926   0.00000  -0.23926  -0.02208
   73 O4      .Y       -0.20314   0.23926  -0.23926   0.00000  -0.17916
   74 O4      .Z        0.20314  -0.00000  -0.23926   0.23926  -0.15707
   75 O4      .S       -0.07935   0.00000   0.00000  -0.00000  -0.00000
   76 O4      .X       -0.07562   0.17538   0.00000  -0.17538  -0.01744
   77 O4      .Y       -0.14719   0.17538  -0.17538   0.00000  -0.14152
   78 O4      .Z        0.14719  -0.00000  -0.17538   0.17538  -0.12407
   79 O4      .XX      -0.00296   0.00787   0.00000  -0.00787   0.00026
   80 O4      .YY       0.01064  -0.00787   0.00787  -0.00000  -0.00214
   81 O4      .ZZ       0.01064   0.00000  -0.00787   0.00787   0.00187
   82 O4      .XY      -0.00144  -0.00000  -0.00339   0.00339   0.00237
   83 O4      .XZ       0.00144   0.00339  -0.00339  -0.00000   0.00271
   84 O4      .YZ      -0.00892   0.00339   0.00000  -0.00339   0.00033
   85 O5      .S       -0.01282  -0.00000   0.00000  -0.00000   0.00000
   86 O5      .S        0.02041   0.00000  -0.00000   0.00000  -0.00000
   87 O5      .X       -0.10932  -0.23926   0.00000  -0.23926   0.02208
   88 O5      .Y       -0.20314  -0.23926  -0.23926   0.00000   0.17916
   89 O5      .Z       -0.20314  -0.00000   0.23926  -0.23926  -0.15707
   90 O5      .S        0.07935   0.00000  -0.00000   0.00000  -0.00000
   91 O5      .X       -0.07562  -0.17538   0.00000  -0.17538   0.01744
   92 O5      .Y       -0.14719  -0.17538  -0.17538   0.00000   0.14152
   93 O5      .Z       -0.14719  -0.00000   0.17538  -0.17538  -0.12407
   94 O5      .XX       0.00296   0.00787  -0.00000   0.00787   0.00026
   95 O5      .YY      -0.01064  -0.00787  -0.00787   0.00000  -0.00214
   96 O5      .ZZ      -0.01064   0.00000   0.00787  -0.00787   0.00187
   97 O5      .XY       0.00144  -0.00000   0.00339  -0.00339   0.00237
   98 O5      .XZ       0.00144  -0.00339  -0.00339  -0.00000  -0.00271
   99 O5      .YZ      -0.00892  -0.00339   0.00000  -0.00339  -0.00033
                          31        32        33        34        35
                           V         V         V         V         V    
     Eigenvalues --     1.89400   3.72312   3.72312   3.72312   5.23011
    1 Mn1     .S        0.00000   0.00000   0.00000   0.00000  -0.01084
    2 Mn1     .S        0.00000   0.00000   0.00000   0.00000   0.01410
    3 Mn1     .X        0.00000  -0.05188   0.00000   0.00000   0.00000
    4 Mn1     .Y        0.00000   0.00000  -0.05188   0.00000   0.00000
    5 Mn1     .Z        0.00000   0.00000   0.00000  -0.05188   0.00000
    6 Mn1     .S       -0.00000   0.00000   0.00000   0.00000   0.18130
    7 Mn1     .X        0.00000   0.09165   0.00000   0.00000   0.00000
    8 Mn1     .Y        0.00000   0.00000   0.09165   0.00000   0.00000
    9 Mn1     .Z        0.00000   0.00000   0.00000   0.09165   0.00000
   10 Mn1     .S        0.00000   0.00000   0.00000   0.00000   0.88110
   11 Mn1     .X        0.00000  -0.19911   0.00000   0.00000   0.00000
   12 Mn1     .Y        0.00000   0.00000  -0.19911   0.00000   0.00000
   13 Mn1     .Z        0.00000   0.00000   0.00000  -0.19911   0.00000
   14 Mn1     .S        0.00000   0.00000   0.00000   0.00000   1.83372
   15 Mn1     .X        0.00000   0.36509   0.00000   0.00000   0.00000
   16 Mn1     .Y        0.00000   0.00000   0.36509   0.00000   0.00000
   17 Mn1     .Z        0.00000   0.00000   0.00000   0.36509   0.00000
   18 Mn1     .XX       0.60252   0.00000   0.00000   0.00000  -0.03590
   19 Mn1     .YY      -0.24190   0.00000   0.00000   0.00000  -0.03590
   20 Mn1     .ZZ      -0.36062   0.00000   0.00000   0.00000  -0.03590
   21 Mn1     .XY       0.00000   0.00000   0.00000   0.58758   0.00000
   22 Mn1     .XZ       0.00000   0.00000   0.58758   0.00000   0.00000
   23 Mn1     .YZ       0.00000   0.58758   0.00000   0.00000   0.00000
   24 Mn1     .XX       0.32420   0.00000   0.00000   0.00000   0.01071
   25 Mn1     .YY      -0.13016   0.00000   0.00000   0.00000   0.01071
   26 Mn1     .ZZ      -0.19404   0.00000   0.00000   0.00000   0.01071
   27 Mn1     .XY       0.00000   0.00000   0.00000   0.31409   0.00000
   28 Mn1     .XZ       0.00000   0.00000   0.31409   0.00000   0.00000
   29 Mn1     .YZ       0.00000   0.31409   0.00000   0.00000   0.00000
   30 Mn1     .XXX      0.00000   0.00408   0.00000   0.00000   0.00000
   31 Mn1     .YYY      0.00000   0.00000  -0.01631   0.00000   0.00000
   32 Mn1     .ZZZ      0.00000   0.00000   0.00000   0.01631   0.00000
   33 Mn1     .XYY      0.00000   0.01094   0.00000   0.00000   0.00000
   34 Mn1     .XXY      0.00000   0.00000  -0.01642   0.00000   0.00000
   35 Mn1     .XXZ      0.00000   0.00000   0.00000   0.01094   0.00000
   36 Mn1     .XZZ      0.00000  -0.01094   0.00000   0.00000   0.00000
   37 Mn1     .YZZ      0.00000   0.00000  -0.01094   0.00000   0.00000
   38 Mn1     .YYZ      0.00000   0.00000   0.00000   0.01094   0.00000
   39 Mn1     .XYZ     -0.00000   0.00000   0.00000   0.00000  -0.02344
   40 O2      .S       -0.00000   0.01794   0.01794   0.01794   0.03473
   41 O2      .S        0.00000  -0.04874  -0.04874  -0.04874  -0.07978
   42 O2      .X       -0.19412   0.21534   0.06183   0.06183  -0.00656
   43 O2      .Y        0.07794   0.06183   0.21534   0.06183  -0.00656
   44 O2      .Z        0.11619   0.06183   0.06183   0.21534  -0.00656
   45 O2      .S        0.00000  -0.07942  -0.07942  -0.07942  -0.20623
   46 O2      .X       -0.15334   0.16529   0.05930   0.05930  -0.04195
   47 O2      .Y        0.06156   0.05930   0.16529   0.05930  -0.04195
   48 O2      .Z        0.09177   0.05930   0.05930   0.16529  -0.04195
   49 O2      .XX      -0.00232   0.00841  -0.00332  -0.00332   0.00977
   50 O2      .YY       0.00093  -0.00332   0.00841  -0.00332   0.00977
   51 O2      .ZZ       0.00139  -0.00332  -0.00332   0.00841   0.00977
   52 O2      .XY      -0.00176   0.00328   0.00328   0.00160  -0.00026
   53 O2      .XZ      -0.00118   0.00328   0.00160   0.00328  -0.00026
   54 O2      .YZ       0.00294   0.00160   0.00328   0.00328  -0.00026
   55 O3      .S       -0.00000  -0.01794  -0.01794   0.01794   0.03473
   56 O3      .S        0.00000   0.04874   0.04874  -0.04874  -0.07978
   57 O3      .X        0.19412   0.21534   0.06183  -0.06183   0.00656
   58 O3      .Y       -0.07794   0.06183   0.21534  -0.06183   0.00656
   59 O3      .Z        0.11619  -0.06183  -0.06183   0.21534  -0.00656
   60 O3      .S        0.00000   0.07942   0.07942  -0.07942  -0.20623
   61 O3      .X        0.15334   0.16529   0.05930  -0.05930   0.04195
   62 O3      .Y       -0.06156   0.05930   0.16529  -0.05930   0.04195
   63 O3      .Z        0.09177  -0.05930  -0.05930   0.16529  -0.04195
   64 O3      .XX      -0.00232  -0.00841   0.00332  -0.00332   0.00977
   65 O3      .YY       0.00093   0.00332  -0.00841  -0.00332   0.00977
   66 O3      .ZZ       0.00139   0.00332   0.00332   0.00841   0.00977
   67 O3      .XY      -0.00176  -0.00328  -0.00328   0.00160  -0.00026
   68 O3      .XZ       0.00118   0.00328   0.00160  -0.00328   0.00026
   69 O3      .YZ      -0.00294   0.00160   0.00328  -0.00328   0.00026
   70 O4      .S       -0.00000  -0.01794   0.01794  -0.01794   0.03473
   71 O4      .S        0.00000   0.04874  -0.04874   0.04874  -0.07978
   72 O4      .X        0.19412   0.21534  -0.06183   0.06183   0.00656
   73 O4      .Y        0.07794  -0.06183   0.21534  -0.06183  -0.00656
   74 O4      .Z       -0.11619   0.06183  -0.06183   0.21534   0.00656
   75 O4      .S        0.00000   0.07942  -0.07942   0.07942  -0.20623
   76 O4      .X        0.15334   0.16529  -0.05930   0.05930   0.04195
   77 O4      .Y        0.06156  -0.05930   0.16529  -0.05930  -0.04195
   78 O4      .Z       -0.09177   0.05930  -0.05930   0.16529   0.04195
   79 O4      .XX      -0.00232  -0.00841  -0.00332   0.00332   0.00977
   80 O4      .YY       0.00093   0.00332   0.00841   0.00332   0.00977
   81 O4      .ZZ       0.00139   0.00332  -0.00332  -0.00841   0.00977
   82 O4      .XY       0.00176   0.00328  -0.00328   0.00160   0.00026
   83 O4      .XZ      -0.00118  -0.00328   0.00160  -0.00328  -0.00026
   84 O4      .YZ      -0.00294   0.00160  -0.00328   0.00328   0.00026
   85 O5      .S       -0.00000   0.01794  -0.01794  -0.01794   0.03473
   86 O5      .S        0.00000  -0.04874   0.04874   0.04874  -0.07978
   87 O5      .X       -0.19412   0.21534  -0.06183  -0.06183  -0.00656
   88 O5      .Y       -0.07794  -0.06183   0.21534   0.06183   0.00656
   89 O5      .Z       -0.11619  -0.06183   0.06183   0.21534   0.00656
   90 O5      .S        0.00000  -0.07942   0.07942   0.07942  -0.20623
   91 O5      .X       -0.15334   0.16529  -0.05930  -0.05930  -0.04195
   92 O5      .Y       -0.06156  -0.05930   0.16529   0.05930   0.04195
   93 O5      .Z       -0.09177  -0.05930   0.05930   0.16529   0.04195
   94 O5      .XX      -0.00232   0.00841   0.00332   0.00332   0.00977
   95 O5      .YY       0.00093  -0.00332  -0.00841   0.00332   0.00977
   96 O5      .ZZ       0.00139  -0.00332   0.00332  -0.00841   0.00977
   97 O5      .XY       0.00176  -0.00328   0.00328   0.00160   0.00026
   98 O5      .XZ       0.00118  -0.00328   0.00160   0.00328   0.00026
   99 O5      .YZ       0.00294   0.00160  -0.00328  -0.00328  -0.00026
                          36        37        38        39        40
                           V         V         V         V         V    
     Eigenvalues --     6.11914   6.11914   6.11914  13.58641  20.44527
    1 Mn1     .S        0.00000   0.00000   0.00000  -0.00773   0.00000
    2 Mn1     .S        0.00000   0.00000   0.00000   0.13614   0.00000
    3 Mn1     .X        0.00740   0.00000   0.00000   0.00000   0.10631
    4 Mn1     .Y        0.00000   0.00000   0.00740   0.00000   0.00000
    5 Mn1     .Z        0.00000   0.00740   0.00000   0.00000   0.00000
    6 Mn1     .S        0.00000   0.00000   0.00000   0.27610   0.00000
    7 Mn1     .X       -0.11042   0.00000   0.00000   0.00000   0.31329
    8 Mn1     .Y        0.00000   0.00000  -0.11042   0.00000   0.00000
    9 Mn1     .Z        0.00000  -0.11042   0.00000   0.00000   0.00000
   10 Mn1     .S        0.00000   0.00000   0.00000   3.71742   0.00000
   11 Mn1     .X       -0.19040   0.00000   0.00000   0.00000   1.57245
   12 Mn1     .Y        0.00000   0.00000  -0.19040   0.00000   0.00000
   13 Mn1     .Z        0.00000  -0.19040   0.00000   0.00000   0.00000
   14 Mn1     .S        0.00000   0.00000   0.00000   1.55942   0.00000
   15 Mn1     .X        1.22916   0.00000   0.00000   0.00000  -0.73928
   16 Mn1     .Y        0.00000   0.00000   1.22916   0.00000   0.00000
   17 Mn1     .Z        0.00000   1.22916   0.00000   0.00000   0.00000
   18 Mn1     .XX       0.00000   0.00000   0.00000  -0.08493   0.00000
   19 Mn1     .YY       0.00000   0.00000   0.00000  -0.08493   0.00000
   20 Mn1     .ZZ       0.00000   0.00000   0.00000  -0.08493   0.00000
   21 Mn1     .XY       0.00000  -0.10420   0.00000   0.00000   0.00000
   22 Mn1     .XZ       0.00000   0.00000  -0.10420   0.00000   0.00000
   23 Mn1     .YZ      -0.10420   0.00000   0.00000   0.00000   0.27103
   24 Mn1     .XX       0.00000   0.00000   0.00000   0.17650   0.00000
   25 Mn1     .YY       0.00000   0.00000   0.00000   0.17650   0.00000
   26 Mn1     .ZZ       0.00000   0.00000   0.00000   0.17650   0.00000
   27 Mn1     .XY       0.00000  -0.08004   0.00000   0.00000   0.00000
   28 Mn1     .XZ       0.00000   0.00000  -0.08004   0.00000   0.00000
   29 Mn1     .YZ      -0.08004   0.00000   0.00000   0.00000   0.00684
   30 Mn1     .XXX     -0.00035   0.00000   0.00000   0.00000   0.00289
   31 Mn1     .YYY      0.00000   0.00000   0.00142   0.00000   0.00000
   32 Mn1     .ZZZ      0.00000  -0.00142   0.00000   0.00000   0.00000
   33 Mn1     .XYY     -0.00095   0.00000   0.00000   0.00000   0.00776
   34 Mn1     .XXY      0.00000   0.00000   0.00143   0.00000   0.00000
   35 Mn1     .XXZ      0.00000  -0.00095   0.00000   0.00000   0.00000
   36 Mn1     .XZZ      0.00095   0.00000   0.00000   0.00000  -0.00776
   37 Mn1     .YZZ      0.00000   0.00000   0.00095   0.00000   0.00000
   38 Mn1     .YYZ      0.00000  -0.00095   0.00000   0.00000   0.00000
   39 Mn1     .XYZ      0.00000   0.00000   0.00000   0.03560   0.00000
   40 O2      .S        0.01785   0.01785   0.01785  -0.04685   0.02581
   41 O2      .S       -0.02604  -0.02604  -0.02604   0.10656  -0.16508
   42 O2      .X       -0.14229   0.00346   0.00346  -0.09636  -0.12352
   43 O2      .Y        0.00346   0.00346  -0.14229  -0.09636   0.15938
   44 O2      .Z        0.00346  -0.14229   0.00346  -0.09636   0.15938
   45 O2      .S       -0.16169  -0.16169  -0.16169   0.62958  -0.13455
   46 O2      .X       -0.15814  -0.01689  -0.01689  -0.19854   0.07670
   47 O2      .Y       -0.01689  -0.01689  -0.15814  -0.19854   0.08297
   48 O2      .Z       -0.01689  -0.15814  -0.01689  -0.19854   0.08297
   49 O2      .XX       0.01317   0.01160   0.01160  -0.00577  -0.06307
   50 O2      .YY       0.01160   0.01160   0.01317  -0.00577  -0.01548
   51 O2      .ZZ       0.01160   0.01317   0.01160  -0.00577  -0.01548
   52 O2      .XY       0.00387   0.00137   0.00387   0.01096  -0.01623
   53 O2      .XZ       0.00387   0.00387   0.00137   0.01096  -0.01623
   54 O2      .YZ       0.00137   0.00387   0.00387   0.01096   0.00842
   55 O3      .S       -0.01785   0.01785  -0.01785  -0.04685  -0.02581
   56 O3      .S        0.02604  -0.02604   0.02604   0.10656   0.16508
   57 O3      .X       -0.14229  -0.00346   0.00346   0.09636  -0.12352
   58 O3      .Y        0.00346  -0.00346  -0.14229   0.09636   0.15938
   59 O3      .Z       -0.00346  -0.14229  -0.00346  -0.09636  -0.15938
   60 O3      .S        0.16169  -0.16169   0.16169   0.62958   0.13455
   61 O3      .X       -0.15814   0.01689  -0.01689   0.19854   0.07670
   62 O3      .Y       -0.01689   0.01689  -0.15814   0.19854   0.08297
   63 O3      .Z        0.01689  -0.15814   0.01689  -0.19854  -0.08297
   64 O3      .XX      -0.01317   0.01160  -0.01160  -0.00577   0.06307
   65 O3      .YY      -0.01160   0.01160  -0.01317  -0.00577   0.01548
   66 O3      .ZZ      -0.01160   0.01317  -0.01160  -0.00577   0.01548
   67 O3      .XY      -0.00387   0.00137  -0.00387   0.01096   0.01623
   68 O3      .XZ       0.00387  -0.00387   0.00137  -0.01096  -0.01623
   69 O3      .YZ       0.00137  -0.00387   0.00387  -0.01096   0.00842
   70 O4      .S       -0.01785  -0.01785   0.01785  -0.04685  -0.02581
   71 O4      .S        0.02604   0.02604  -0.02604   0.10656   0.16508
   72 O4      .X       -0.14229   0.00346  -0.00346   0.09636  -0.12352
   73 O4      .Y       -0.00346  -0.00346  -0.14229  -0.09636  -0.15938
   74 O4      .Z        0.00346  -0.14229  -0.00346   0.09636   0.15938
   75 O4      .S        0.16169   0.16169  -0.16169   0.62958   0.13455
   76 O4      .X       -0.15814  -0.01689   0.01689   0.19854   0.07670
   77 O4      .Y        0.01689   0.01689  -0.15814  -0.19854  -0.08297
   78 O4      .Z       -0.01689  -0.15814   0.01689   0.19854   0.08297
   79 O4      .XX      -0.01317  -0.01160   0.01160  -0.00577   0.06307
   80 O4      .YY      -0.01160  -0.01160   0.01317  -0.00577   0.01548
   81 O4      .ZZ      -0.01160  -0.01317   0.01160  -0.00577   0.01548
   82 O4      .XY       0.00387   0.00137  -0.00387  -0.01096  -0.01623
   83 O4      .XZ      -0.00387  -0.00387   0.00137   0.01096   0.01623
   84 O4      .YZ       0.00137   0.00387  -0.00387  -0.01096   0.00842
   85 O5      .S        0.01785  -0.01785  -0.01785  -0.04685   0.02581
   86 O5      .S       -0.02604   0.02604   0.02604   0.10656  -0.16508
   87 O5      .X       -0.14229  -0.00346  -0.00346  -0.09636  -0.12352
   88 O5      .Y       -0.00346   0.00346  -0.14229   0.09636  -0.15938
   89 O5      .Z       -0.00346  -0.14229   0.00346   0.09636  -0.15938
   90 O5      .S       -0.16169   0.16169   0.16169   0.62958  -0.13455
   91 O5      .X       -0.15814   0.01689   0.01689  -0.19854   0.07670
   92 O5      .Y        0.01689  -0.01689  -0.15814   0.19854  -0.08297
   93 O5      .Z        0.01689  -0.15814  -0.01689   0.19854  -0.08297
   94 O5      .XX       0.01317  -0.01160  -0.01160  -0.00577  -0.06307
   95 O5      .YY       0.01160  -0.01160  -0.01317  -0.00577  -0.01548
   96 O5      .ZZ       0.01160  -0.01317  -0.01160  -0.00577  -0.01548
   97 O5      .XY      -0.00387   0.00137   0.00387  -0.01096   0.01623
   98 O5      .XZ      -0.00387   0.00387   0.00137  -0.01096   0.01623
   99 O5      .YZ       0.00137  -0.00387  -0.00387   0.01096   0.00842
                          41        42        43        44        45
                           V         V         V         V         V    
     Eigenvalues --    20.44527  20.44527  27.99998  27.99998  28.66778
    1 Mn1     .S        0.00000   0.00000  -0.00000  -0.00000  -0.03808
    2 Mn1     .S        0.00000   0.00000  -0.00000  -0.00000  -0.17059
    3 Mn1     .X        0.00000   0.00000   0.00000   0.00000   0.00000
    4 Mn1     .Y        0.00000   0.10631   0.00000   0.00000   0.00000
    5 Mn1     .Z        0.10631   0.00000   0.00000   0.00000   0.00000
    6 Mn1     .S        0.00000   0.00000   0.00000   0.00000   0.54489
    7 Mn1     .X        0.00000   0.00000   0.00000   0.00000   0.00000
    8 Mn1     .Y        0.00000   0.31329   0.00000   0.00000   0.00000
    9 Mn1     .Z        0.31329   0.00000   0.00000   0.00000   0.00000
   10 Mn1     .S        0.00000   0.00000   0.00000  -0.00000   1.05152
   11 Mn1     .X        0.00000   0.00000   0.00000   0.00000   0.00000
   12 Mn1     .Y        0.00000   1.57245   0.00000   0.00000   0.00000
   13 Mn1     .Z        1.57245   0.00000   0.00000   0.00000   0.00000
   14 Mn1     .S        0.00000   0.00000  -0.00000   0.00000   0.05542
   15 Mn1     .X        0.00000   0.00000   0.00000   0.00000   0.00000
   16 Mn1     .Y        0.00000  -0.73928   0.00000   0.00000   0.00000
   17 Mn1     .Z       -0.73928   0.00000   0.00000   0.00000   0.00000
   18 Mn1     .XX       0.00000   0.00000  -0.13600   0.05828   0.05992
   19 Mn1     .YY       0.00000   0.00000   0.01753  -0.14692   0.05992
   20 Mn1     .ZZ       0.00000   0.00000   0.11847   0.08864   0.05992
   21 Mn1     .XY       0.27103   0.00000   0.00000   0.00000   0.00000
   22 Mn1     .XZ       0.00000   0.27103   0.00000   0.00000   0.00000
   23 Mn1     .YZ       0.00000   0.00000   0.00000   0.00000   0.00000
   24 Mn1     .XX       0.00000   0.00000  -0.05447   0.02334   1.02295
   25 Mn1     .YY       0.00000   0.00000   0.00702  -0.05884   1.02295
   26 Mn1     .ZZ       0.00000   0.00000   0.04745   0.03550   1.02295
   27 Mn1     .XY       0.00684   0.00000   0.00000   0.00000   0.00000
   28 Mn1     .XZ       0.00000   0.00684   0.00000   0.00000   0.00000
   29 Mn1     .YZ       0.00000   0.00000   0.00000   0.00000   0.00000
   30 Mn1     .XXX      0.00000   0.00000   0.00000   0.00000   0.00000
   31 Mn1     .YYY      0.00000  -0.01156   0.00000   0.00000   0.00000
   32 Mn1     .ZZZ      0.01156   0.00000   0.00000   0.00000   0.00000
   33 Mn1     .XYY      0.00000   0.00000   0.00000   0.00000   0.00000
   34 Mn1     .XXY      0.00000  -0.01164   0.00000   0.00000   0.00000
   35 Mn1     .XXZ      0.00776   0.00000   0.00000   0.00000   0.00000
   36 Mn1     .XZZ      0.00000   0.00000   0.00000   0.00000   0.00000
   37 Mn1     .YZZ      0.00000  -0.00776   0.00000   0.00000   0.00000
   38 Mn1     .YYZ      0.00776   0.00000   0.00000   0.00000   0.00000
   39 Mn1     .XYZ      0.00000   0.00000   0.00000  -0.00000   0.02446
   40 O2      .S        0.02581   0.02581   0.00000   0.00000   0.02137
   41 O2      .S       -0.16508  -0.16508  -0.00000   0.00000  -0.20389
   42 O2      .X        0.15938   0.15938  -0.35609   0.15258  -0.03362
   43 O2      .Y        0.15938  -0.12352   0.04591  -0.38467  -0.03362
   44 O2      .Z       -0.12352   0.15938   0.31018   0.23209  -0.03362
   45 O2      .S       -0.13455  -0.13455   0.00000  -0.00000   0.19307
   46 O2      .X        0.08297   0.08297   0.37663  -0.16138   0.29660
   47 O2      .Y        0.08297   0.07670  -0.04855   0.40686   0.29660
   48 O2      .Z        0.07670   0.08297  -0.32807  -0.24548   0.29660
   49 O2      .XX      -0.01548  -0.01548   0.00562  -0.00241  -0.05451
   50 O2      .YY      -0.01548  -0.06307  -0.00072   0.00607  -0.05451
   51 O2      .ZZ      -0.06307  -0.01548  -0.00489  -0.00366  -0.05451
   52 O2      .XY       0.00842  -0.01623  -0.01544  -0.01155   0.01355
   53 O2      .XZ      -0.01623   0.00842  -0.00228   0.01915   0.01355
   54 O2      .YZ      -0.01623  -0.01623   0.01772  -0.00759   0.01355
   55 O3      .S        0.02581  -0.02581   0.00000   0.00000   0.02137
   56 O3      .S       -0.16508   0.16508  -0.00000   0.00000  -0.20389
   57 O3      .X       -0.15938   0.15938   0.35609  -0.15258   0.03362
   58 O3      .Y       -0.15938  -0.12352  -0.04591   0.38467   0.03362
   59 O3      .Z       -0.12352  -0.15938   0.31018   0.23209  -0.03362
   60 O3      .S       -0.13455   0.13455   0.00000  -0.00000   0.19307
   61 O3      .X       -0.08297   0.08297  -0.37663   0.16138  -0.29660
   62 O3      .Y       -0.08297   0.07670   0.04855  -0.40686  -0.29660
   63 O3      .Z        0.07670  -0.08297  -0.32807  -0.24548   0.29660
   64 O3      .XX      -0.01548   0.01548   0.00562  -0.00241  -0.05451
   65 O3      .YY      -0.01548   0.06307  -0.00072   0.00607  -0.05451
   66 O3      .ZZ      -0.06307   0.01548  -0.00489  -0.00366  -0.05451
   67 O3      .XY       0.00842   0.01623  -0.01544  -0.01155   0.01355
   68 O3      .XZ       0.01623   0.00842   0.00228  -0.01915  -0.01355
   69 O3      .YZ       0.01623  -0.01623  -0.01772   0.00759  -0.01355
   70 O4      .S       -0.02581   0.02581   0.00000   0.00000   0.02137
   71 O4      .S        0.16508  -0.16508  -0.00000   0.00000  -0.20389
   72 O4      .X        0.15938  -0.15938   0.35609  -0.15258   0.03362
   73 O4      .Y       -0.15938  -0.12352   0.04591  -0.38467  -0.03362
   74 O4      .Z       -0.12352  -0.15938  -0.31018  -0.23209   0.03362
   75 O4      .S        0.13455  -0.13455   0.00000  -0.00000   0.19307
   76 O4      .X        0.08297  -0.08297  -0.37663   0.16138  -0.29660
   77 O4      .Y       -0.08297   0.07670  -0.04855   0.40686   0.29660
   78 O4      .Z        0.07670  -0.08297   0.32807   0.24548  -0.29660
   79 O4      .XX       0.01548  -0.01548   0.00562  -0.00241  -0.05451
   80 O4      .YY       0.01548  -0.06307  -0.00072   0.00607  -0.05451
   81 O4      .ZZ       0.06307  -0.01548  -0.00489  -0.00366  -0.05451
   82 O4      .XY       0.00842   0.01623   0.01544   0.01155  -0.01355
   83 O4      .XZ       0.01623   0.00842  -0.00228   0.01915   0.01355
   84 O4      .YZ      -0.01623   0.01623  -0.01772   0.00759  -0.01355
   85 O5      .S       -0.02581  -0.02581   0.00000   0.00000   0.02137
   86 O5      .S        0.16508   0.16508  -0.00000   0.00000  -0.20389
   87 O5      .X       -0.15938  -0.15938  -0.35609   0.15258  -0.03362
   88 O5      .Y        0.15938  -0.12352  -0.04591   0.38467   0.03362
   89 O5      .Z       -0.12352   0.15938  -0.31018  -0.23209   0.03362
   90 O5      .S        0.13455   0.13455   0.00000  -0.00000   0.19307
   91 O5      .X       -0.08297  -0.08297   0.37663  -0.16138   0.29660
   92 O5      .Y        0.08297   0.07670   0.04855  -0.40686  -0.29660
   93 O5      .Z        0.07670   0.08297   0.32807   0.24548  -0.29660
   94 O5      .XX       0.01548   0.01548   0.00562  -0.00241  -0.05451
   95 O5      .YY       0.01548   0.06307  -0.00072   0.00607  -0.05451
   96 O5      .ZZ       0.06307   0.01548  -0.00489  -0.00366  -0.05451
   97 O5      .XY       0.00842  -0.01623   0.01544   0.01155  -0.01355
   98 O5      .XZ      -0.01623   0.00842   0.00228  -0.01915  -0.01355
   99 O5      .YZ       0.01623   0.01623   0.01772  -0.00759   0.01355
                          46        47        48        49        50
                           V         V         V         V         V    
     Eigenvalues --    28.93666  28.93666  28.93666  30.81561  32.83248
    1 Mn1     .S        0.00000   0.00000   0.00000  -0.04076   0.00000
    2 Mn1     .S        0.00000   0.00000   0.00000  -0.02299   0.00000
    3 Mn1     .X        0.00000   0.00000  -0.00347   0.00000   0.00000
    4 Mn1     .Y        0.00000  -0.00347   0.00000   0.00000   0.00000
    5 Mn1     .Z       -0.00347   0.00000   0.00000   0.00000   0.00000
    6 Mn1     .S        0.00000   0.00000   0.00000   0.78267   0.00000
    7 Mn1     .X        0.00000   0.00000   0.25478   0.00000   0.00000
    8 Mn1     .Y        0.00000   0.25478   0.00000   0.00000  -0.00000
    9 Mn1     .Z        0.25478   0.00000   0.00000   0.00000   0.00000
   10 Mn1     .S        0.00000   0.00000   0.00000   2.22677   0.00000
   11 Mn1     .X        0.00000   0.00000   0.53022   0.00000   0.00000
   12 Mn1     .Y        0.00000   0.53022   0.00000   0.00000  -0.00000
   13 Mn1     .Z        0.53022   0.00000   0.00000   0.00000   0.00000
   14 Mn1     .S        0.00000   0.00000   0.00000   1.12811   0.00000
   15 Mn1     .X        0.00000   0.00000  -0.42702   0.00000   0.00000
   16 Mn1     .Y        0.00000  -0.42702   0.00000   0.00000   0.00000
   17 Mn1     .Z       -0.42702   0.00000   0.00000   0.00000   0.00000
   18 Mn1     .XX       0.00000   0.00000   0.00000  -0.01303   0.00000
   19 Mn1     .YY       0.00000   0.00000   0.00000  -0.01303   0.00000
   20 Mn1     .ZZ       0.00000   0.00000   0.00000  -0.01303   0.00000
   21 Mn1     .XY      -0.11092   0.00000   0.00000   0.00000   0.00000
   22 Mn1     .XZ       0.00000  -0.11092   0.00000   0.00000   0.00000
   23 Mn1     .YZ       0.00000   0.00000  -0.11092   0.00000   0.00000
   24 Mn1     .XX       0.00000   0.00000   0.00000   0.24288   0.00000
   25 Mn1     .YY       0.00000   0.00000   0.00000   0.24288   0.00000
   26 Mn1     .ZZ       0.00000   0.00000   0.00000   0.24288   0.00000
   27 Mn1     .XY       0.18156   0.00000   0.00000   0.00000   0.00000
   28 Mn1     .XZ       0.00000   0.18156   0.00000   0.00000  -0.00000
   29 Mn1     .YZ       0.00000   0.00000   0.18156   0.00000   0.00000
   30 Mn1     .XXX      0.00000   0.00000  -0.00646   0.00000   0.00000
   31 Mn1     .YYY      0.00000   0.02582   0.00000   0.00000  -0.00000
   32 Mn1     .ZZZ     -0.02582   0.00000   0.00000   0.00000   0.00000
   33 Mn1     .XYY      0.00000   0.00000  -0.01732   0.00000   0.00000
   34 Mn1     .XXY      0.00000   0.02598   0.00000   0.00000  -0.01733
   35 Mn1     .XXZ     -0.01732   0.00000   0.00000   0.00000   0.00000
   36 Mn1     .XZZ      0.00000   0.00000   0.01732   0.00000   0.00000
   37 Mn1     .YZZ      0.00000   0.01732   0.00000   0.00000   0.03465
   38 Mn1     .YYZ     -0.01732   0.00000   0.00000   0.00000   0.00000
   39 Mn1     .XYZ      0.00000   0.00000   0.00000  -0.17403   0.00000
   40 O2      .S        0.00039   0.00039   0.00039  -0.00316  -0.00000
   41 O2      .S       -0.41849  -0.41849  -0.41849   0.15567   0.00000
   42 O2      .X       -0.24613  -0.24613  -0.04970   0.24358  -0.33632
   43 O2      .Y       -0.24613  -0.04970  -0.24613   0.24358   0.00000
   44 O2      .Z       -0.04970  -0.24613  -0.24613   0.24358   0.33632
   45 O2      .S        0.59466   0.59466   0.59466   0.00341   0.00000
   46 O2      .X        0.34563   0.34563   0.12028  -0.37667   0.41774
   47 O2      .Y        0.34563   0.12028   0.34563  -0.37667  -0.00000
   48 O2      .Z        0.12028   0.34563   0.34563  -0.37667  -0.41774
   49 O2      .XX      -0.13796  -0.13796  -0.14224   0.06513   0.02362
   50 O2      .YY      -0.13796  -0.14224  -0.13796   0.06513   0.00000
   51 O2      .ZZ      -0.14224  -0.13796  -0.13796   0.06513  -0.02362
   52 O2      .XY      -0.00595  -0.01597  -0.01597   0.02780   0.03015
   53 O2      .XZ      -0.01597  -0.00595  -0.01597   0.02780   0.00000
   54 O2      .YZ      -0.01597  -0.01597  -0.00595   0.02780  -0.03015
   55 O3      .S        0.00039  -0.00039  -0.00039  -0.00316   0.00000
   56 O3      .S       -0.41849   0.41849   0.41849   0.15567  -0.00000
   57 O3      .X        0.24613  -0.24613  -0.04970  -0.24358  -0.33632
   58 O3      .Y        0.24613  -0.04970  -0.24613  -0.24358   0.00000
   59 O3      .Z       -0.04970   0.24613   0.24613   0.24358  -0.33632
   60 O3      .S        0.59466  -0.59466  -0.59466   0.00341  -0.00000
   61 O3      .X       -0.34563   0.34563   0.12028   0.37667   0.41774
   62 O3      .Y       -0.34563   0.12028   0.34563   0.37667  -0.00000
   63 O3      .Z        0.12028  -0.34563  -0.34563  -0.37667   0.41774
   64 O3      .XX      -0.13796   0.13796   0.14224   0.06513  -0.02362
   65 O3      .YY      -0.13796   0.14224   0.13796   0.06513  -0.00000
   66 O3      .ZZ      -0.14224   0.13796   0.13796   0.06513   0.02362
   67 O3      .XY      -0.00595   0.01597   0.01597   0.02780  -0.03015
   68 O3      .XZ       0.01597  -0.00595  -0.01597  -0.02780   0.00000
   69 O3      .YZ       0.01597  -0.01597  -0.00595  -0.02780  -0.03015
   70 O4      .S       -0.00039   0.00039  -0.00039  -0.00316  -0.00000
   71 O4      .S        0.41849  -0.41849   0.41849   0.15567   0.00000
   72 O4      .X       -0.24613   0.24613  -0.04970  -0.24358   0.33632
   73 O4      .Y        0.24613  -0.04970   0.24613   0.24358   0.00000
   74 O4      .Z       -0.04970   0.24613  -0.24613  -0.24358  -0.33632
   75 O4      .S       -0.59466   0.59466  -0.59466   0.00341   0.00000
   76 O4      .X        0.34563  -0.34563   0.12028   0.37667  -0.41774
   77 O4      .Y       -0.34563   0.12028  -0.34563  -0.37667  -0.00000
   78 O4      .Z        0.12028  -0.34563   0.34563   0.37667   0.41774
   79 O4      .XX       0.13796  -0.13796   0.14224   0.06513   0.02362
   80 O4      .YY       0.13796  -0.14224   0.13796   0.06513   0.00000
   81 O4      .ZZ       0.14224  -0.13796   0.13796   0.06513  -0.02362
   82 O4      .XY      -0.00595   0.01597  -0.01597  -0.02780  -0.03015
   83 O4      .XZ       0.01597  -0.00595   0.01597   0.02780   0.00000
   84 O4      .YZ      -0.01597   0.01597  -0.00595  -0.02780   0.03015
   85 O5      .S       -0.00039  -0.00039   0.00039  -0.00316   0.00000
   86 O5      .S        0.41849   0.41849  -0.41849   0.15567  -0.00000
   87 O5      .X        0.24613   0.24613  -0.04970   0.24358   0.33632
   88 O5      .Y       -0.24613  -0.04970   0.24613  -0.24358   0.00000
   89 O5      .Z       -0.04970  -0.24613   0.24613  -0.24358   0.33632
   90 O5      .S       -0.59466  -0.59466   0.59466   0.00341  -0.00000
   91 O5      .X       -0.34563  -0.34563   0.12028  -0.37667  -0.41774
   92 O5      .Y        0.34563   0.12028  -0.34563   0.37667  -0.00000
   93 O5      .Z        0.12028   0.34563  -0.34563   0.37667  -0.41774
   94 O5      .XX       0.13796   0.13796  -0.14224   0.06513  -0.02362
   95 O5      .YY       0.13796   0.14224  -0.13796   0.06513  -0.00000
   96 O5      .ZZ       0.14224   0.13796  -0.13796   0.06513   0.02362
   97 O5      .XY      -0.00595  -0.01597   0.01597  -0.02780   0.03015
   98 O5      .XZ      -0.01597  -0.00595   0.01597  -0.02780   0.00000
   99 O5      .YZ       0.01597   0.01597  -0.00595   0.02780   0.03015
                          51        52        53        54        55
                           V         V         V         V         V    
     Eigenvalues --    32.83248  32.83248  34.57135  34.57135  34.57135
    1 Mn1     .S        0.00000   0.00000   0.00000   0.00000   0.00000
    2 Mn1     .S        0.00000   0.00000   0.00000   0.00000   0.00000
    3 Mn1     .X       -0.00000   0.00000   0.00000   0.00000  -0.04756
    4 Mn1     .Y        0.00000   0.00000   0.00000  -0.04756   0.00000
    5 Mn1     .Z        0.00000   0.00000  -0.04756   0.00000   0.00000
    6 Mn1     .S        0.00000   0.00000   0.00000   0.00000   0.00000
    7 Mn1     .X        0.00000   0.00000   0.00000   0.00000   0.24786
    8 Mn1     .Y        0.00000   0.00000   0.00000   0.24786   0.00000
    9 Mn1     .Z        0.00000  -0.00000   0.24786   0.00000   0.00000
   10 Mn1     .S        0.00000   0.00000   0.00000   0.00000   0.00000
   11 Mn1     .X       -0.00000   0.00000   0.00000   0.00000   0.13104
   12 Mn1     .Y        0.00000   0.00000   0.00000   0.13104   0.00000
   13 Mn1     .Z        0.00000  -0.00000   0.13104   0.00000   0.00000
   14 Mn1     .S        0.00000   0.00000   0.00000   0.00000   0.00000
   15 Mn1     .X       -0.00000   0.00000   0.00000   0.00000  -0.32691
   16 Mn1     .Y        0.00000   0.00000   0.00000  -0.32691   0.00000
   17 Mn1     .Z        0.00000   0.00000  -0.32691   0.00000   0.00000
   18 Mn1     .XX       0.00000   0.00000   0.00000   0.00000   0.00000
   19 Mn1     .YY       0.00000   0.00000   0.00000   0.00000   0.00000
   20 Mn1     .ZZ       0.00000   0.00000   0.00000   0.00000   0.00000
   21 Mn1     .XY       0.00000   0.00000  -0.16330   0.00000   0.00000
   22 Mn1     .XZ       0.00000   0.00000   0.00000  -0.16330   0.00000
   23 Mn1     .YZ      -0.00000   0.00000   0.00000   0.00000  -0.16330
[...]
   72 O4      .X       -0.07369  -0.12219   0.01265   0.00765   0.09232
   73 O4      .Y        0.07369   0.12219  -0.00030   0.01478  -0.09232
   74 O4      .Z        0.08058  -0.12219  -0.01294   0.00713   0.07241
   75 O4      .S        1.73903   1.18534  -0.00000  -0.00000   0.32069
   76 O4      .X        0.61539   0.38789  -0.15308  -0.09253   0.03046
   77 O4      .Y       -0.61539  -0.38789   0.00359  -0.17883  -0.03046
   78 O4      .Z        0.12272   0.38789   0.15667  -0.08631   0.22303
   79 O4      .XX      -0.02582  -0.05509  -0.32102  -0.19404  -0.19020
   80 O4      .YY      -0.02582  -0.05509  -0.00753   0.37503  -0.19020
   81 O4      .ZZ      -0.06182  -0.05509   0.32855  -0.18099   0.21065
   82 O4      .XY      -0.36103  -0.17716   0.27150  -0.14956   0.07410
   83 O4      .XZ       0.26651   0.17716   0.00622  -0.30990   0.23453
   84 O4      .YZ      -0.26651  -0.17716  -0.26527  -0.16034  -0.23453
   85 O5      .S       -0.02518  -0.00770   0.00000   0.00000  -0.03834
   86 O5      .S       -0.60875  -0.54315  -0.00000  -0.00000   0.09273
   87 O5      .X        0.07369   0.12219  -0.01265  -0.00765  -0.09232
   88 O5      .Y       -0.07369  -0.12219   0.00030  -0.01478   0.09232
   89 O5      .Z        0.08058  -0.12219  -0.01294   0.00713   0.07241
   90 O5      .S        1.73903   1.18534  -0.00000  -0.00000   0.32069
   91 O5      .X       -0.61539  -0.38789   0.15308   0.09253  -0.03046
   92 O5      .Y        0.61539   0.38789  -0.00359   0.17883   0.03046
   93 O5      .Z        0.12272   0.38789   0.15667  -0.08631   0.22303
   94 O5      .XX      -0.02582  -0.05509  -0.32102  -0.19404  -0.19020
   95 O5      .YY      -0.02582  -0.05509  -0.00753   0.37503  -0.19020
   96 O5      .ZZ      -0.06182  -0.05509   0.32855  -0.18099   0.21065
   97 O5      .XY      -0.36103  -0.17716   0.27150  -0.14956   0.07410
   98 O5      .XZ      -0.26651  -0.17716  -0.00622   0.30990  -0.23453
   99 O5      .YZ       0.26651   0.17716   0.26527   0.16034   0.23453
                          86        87        88        89        90
                           V         V         V         V         V    
     Eigenvalues --    81.22581  81.22581  82.18430  82.18430  82.18430
    1 Mn1     .S        0.00000   0.00000   0.00000   0.00000   0.00000
    2 Mn1     .S        0.00000   0.00000   0.00000   0.00000   0.00000
    3 Mn1     .X       -0.02368   0.00000   0.00000   0.00000   0.00000
    4 Mn1     .Y        0.00000  -0.02368   0.00000   0.00000   0.00000
    5 Mn1     .Z        0.00000   0.00000   0.00000   0.00000   0.00000
    6 Mn1     .S        0.00000   0.00000   0.00000   0.00000   0.00000
    7 Mn1     .X        0.18669   0.00000   0.00000  -0.00000   0.00000
    8 Mn1     .Y        0.00000   0.18669  -0.00000   0.00000   0.00000
    9 Mn1     .Z        0.00000   0.00000   0.00000   0.00000  -0.00000
   10 Mn1     .S        0.00000   0.00000   0.00000   0.00000   0.00000
   11 Mn1     .X        0.22182   0.00000   0.00000  -0.00000   0.00000
   12 Mn1     .Y        0.00000   0.22182   0.00000   0.00000   0.00000
   13 Mn1     .Z        0.00000   0.00000   0.00000   0.00000  -0.00000
   14 Mn1     .S        0.00000   0.00000   0.00000   0.00000   0.00000
   15 Mn1     .X       -0.11857   0.00000   0.00000   0.00000   0.00000
   16 Mn1     .Y        0.00000  -0.11857   0.00000   0.00000   0.00000
   17 Mn1     .Z        0.00000   0.00000   0.00000   0.00000   0.00000
   18 Mn1     .XX       0.00000   0.00000   0.00000   0.00000   0.00000
   19 Mn1     .YY       0.00000   0.00000   0.00000   0.00000   0.00000
   20 Mn1     .ZZ       0.00000   0.00000   0.00000   0.00000   0.00000
   21 Mn1     .XY       0.00000   0.00000   0.00000   0.00000   0.00000
   22 Mn1     .XZ       0.00000  -0.31801   0.00000   0.00000   0.00000
   23 Mn1     .YZ      -0.31801   0.00000   0.00000   0.00000   0.00000
   24 Mn1     .XX       0.00000   0.00000   0.00000   0.00000   0.00000
   25 Mn1     .YY       0.00000   0.00000   0.00000   0.00000   0.00000
   26 Mn1     .ZZ       0.00000   0.00000   0.00000   0.00000   0.00000
   27 Mn1     .XY       0.00000   0.00000   0.00000   0.00000  -0.00000
   28 Mn1     .XZ       0.00000   0.94437  -0.00000   0.00000   0.00000
   29 Mn1     .YZ       0.94437   0.00000   0.00000  -0.00000   0.00000
   30 Mn1     .XXX     -0.21873   0.00000   0.00000   0.98436   0.00000
   31 Mn1     .YYY      0.00000   0.87492  -0.00000   0.00000   0.00000
   32 Mn1     .ZZZ      0.00000   0.00000   0.00000   0.00000   0.00000
   33 Mn1     .XYY     -0.58691   0.00000   0.00000   0.88043   0.00000
   34 Mn1     .XXY      0.00000   0.88037  -0.44022   0.00000   0.00000
   35 Mn1     .XXZ      0.00000   0.00000   0.00000   0.00000   0.88043
   36 Mn1     .XZZ      0.58691   0.00000   0.00000   0.88043   0.00000
   37 Mn1     .YZZ      0.00000   0.58691   0.88043   0.00000   0.00000
   38 Mn1     .YYZ      0.00000   0.00000   0.00000   0.00000   0.88043
   39 Mn1     .XYZ      0.00000   0.00000   0.00000   0.00000   0.00000
   40 O2      .S        0.03834   0.03834  -0.00000  -0.00000  -0.00000
   41 O2      .S       -0.09273  -0.09273   0.00000   0.00000   0.00000
   42 O2      .X        0.07241   0.09232  -0.00858  -0.00000   0.00858
   43 O2      .Y        0.09232   0.07241  -0.00000  -0.00858  -0.00858
   44 O2      .Z        0.09232   0.09232   0.00858   0.00858  -0.00000
   45 O2      .S       -0.32069  -0.32069   0.00000   0.00000   0.00000
   46 O2      .X        0.22303   0.03046   0.10826  -0.00000  -0.10826
   47 O2      .Y        0.03046   0.22303  -0.00000   0.10826   0.10826
   48 O2      .Z        0.03046   0.03046  -0.10826  -0.10826  -0.00000
   49 O2      .XX      -0.21065   0.19020  -0.29837   0.00000   0.29837
   50 O2      .YY       0.19020  -0.21065   0.00000  -0.29837  -0.29837
   51 O2      .ZZ       0.19020   0.19020   0.29837   0.29837   0.00000
   52 O2      .XY      -0.23453  -0.23453  -0.12304  -0.12304  -0.00000
   53 O2      .XZ      -0.23453   0.07410   0.00000   0.12304   0.12304
   54 O2      .YZ       0.07410  -0.23453   0.12304  -0.00000  -0.12304
   55 O3      .S       -0.03834  -0.03834   0.00000   0.00000  -0.00000
   56 O3      .S        0.09273   0.09273  -0.00000  -0.00000   0.00000
   57 O3      .X        0.07241   0.09232  -0.00858  -0.00000  -0.00858
   58 O3      .Y        0.09232   0.07241  -0.00000  -0.00858   0.00858
   59 O3      .Z       -0.09232  -0.09232  -0.00858  -0.00858  -0.00000
   60 O3      .S        0.32069   0.32069  -0.00000  -0.00000   0.00000
   61 O3      .X        0.22303   0.03046   0.10826  -0.00000   0.10826
   62 O3      .Y        0.03046   0.22303  -0.00000   0.10826  -0.10826
   63 O3      .Z       -0.03046  -0.03046   0.10826   0.10826  -0.00000
   64 O3      .XX       0.21065  -0.19020   0.29837  -0.00000   0.29837
   65 O3      .YY      -0.19020   0.21065  -0.00000   0.29837  -0.29837
   66 O3      .ZZ      -0.19020  -0.19020  -0.29837  -0.29837   0.00000
   67 O3      .XY       0.23453   0.23453   0.12304   0.12304  -0.00000
   68 O3      .XZ      -0.23453   0.07410   0.00000   0.12304  -0.12304
   69 O3      .YZ       0.07410  -0.23453   0.12304  -0.00000   0.12304
   70 O4      .S       -0.03834   0.03834  -0.00000   0.00000   0.00000
   71 O4      .S        0.09273  -0.09273   0.00000  -0.00000  -0.00000
   72 O4      .X        0.07241  -0.09232   0.00858  -0.00000   0.00858
   73 O4      .Y       -0.09232   0.07241  -0.00000   0.00858   0.00858
   74 O4      .Z        0.09232  -0.09232  -0.00858   0.00858  -0.00000
   75 O4      .S        0.32069  -0.32069   0.00000  -0.00000  -0.00000
   76 O4      .X        0.22303  -0.03046  -0.10826  -0.00000  -0.10826
   77 O4      .Y       -0.03046   0.22303  -0.00000  -0.10826  -0.10826
   78 O4      .Z        0.03046  -0.03046   0.10826  -0.10826  -0.00000
   79 O4      .XX       0.21065   0.19020  -0.29837  -0.00000  -0.29837
   80 O4      .YY      -0.19020  -0.21065   0.00000   0.29837   0.29837
   81 O4      .ZZ      -0.19020   0.19020   0.29837  -0.29837  -0.00000
   82 O4      .XY      -0.23453   0.23453   0.12304  -0.12304  -0.00000
   83 O4      .XZ       0.23453   0.07410   0.00000  -0.12304  -0.12304
   84 O4      .YZ       0.07410   0.23453  -0.12304  -0.00000  -0.12304
   85 O5      .S        0.03834  -0.03834   0.00000  -0.00000   0.00000
   86 O5      .S       -0.09273   0.09273  -0.00000   0.00000  -0.00000
   87 O5      .X        0.07241  -0.09232   0.00858  -0.00000  -0.00858
   88 O5      .Y       -0.09232   0.07241  -0.00000   0.00858  -0.00858
   89 O5      .Z       -0.09232   0.09232   0.00858  -0.00858  -0.00000
   90 O5      .S       -0.32069   0.32069  -0.00000   0.00000  -0.00000
   91 O5      .X        0.22303  -0.03046  -0.10826  -0.00000   0.10826
   92 O5      .Y       -0.03046   0.22303  -0.00000  -0.10826   0.10826
   93 O5      .Z       -0.03046   0.03046  -0.10826   0.10826  -0.00000
   94 O5      .XX      -0.21065  -0.19020   0.29837   0.00000  -0.29837
   95 O5      .YY       0.19020   0.21065  -0.00000  -0.29837   0.29837
   96 O5      .ZZ       0.19020  -0.19020  -0.29837   0.29837  -0.00000
   97 O5      .XY       0.23453  -0.23453  -0.12304   0.12304  -0.00000
   98 O5      .XZ       0.23453   0.07410   0.00000  -0.12304   0.12304
   99 O5      .YZ       0.07410   0.23453  -0.12304  -0.00000   0.12304
                          91        92        93        94        95
                           V         V         V         V         V    
     Eigenvalues --    99.33445 105.68090 105.68090 105.68090 113.42144
    1 Mn1     .S       -0.00800   0.00000   0.00000   0.00000  -0.03430
    2 Mn1     .S        0.21336   0.00000   0.00000   0.00000   0.16713
    3 Mn1     .X        0.00000   0.00000  -0.00731   0.00000   0.00000
    4 Mn1     .Y        0.00000   0.00000   0.00000  -0.00731   0.00000
    5 Mn1     .Z        0.00000  -0.00731   0.00000   0.00000   0.00000
    6 Mn1     .S        0.50473   0.00000   0.00000   0.00000   0.93875
    7 Mn1     .X        0.00000   0.00000  -0.55204   0.00000   0.00000
    8 Mn1     .Y        0.00000   0.00000   0.00000  -0.55204   0.00000
    9 Mn1     .Z        0.00000  -0.55204   0.00000   0.00000   0.00000
   10 Mn1     .S        2.55099   0.00000   0.00000   0.00000   3.87110
   11 Mn1     .X        0.00000   0.00000  -1.20396   0.00000   0.00000
   12 Mn1     .Y        0.00000   0.00000   0.00000  -1.20396   0.00000
   13 Mn1     .Z        0.00000  -1.20396   0.00000   0.00000   0.00000
   14 Mn1     .S        0.63975   0.00000   0.00000   0.00000   0.35180
   15 Mn1     .X        0.00000   0.00000   0.05092   0.00000   0.00000
   16 Mn1     .Y        0.00000   0.00000   0.00000   0.05092   0.00000
   17 Mn1     .Z        0.00000   0.05092   0.00000   0.00000   0.00000
   18 Mn1     .XX      -0.05547   0.00000   0.00000   0.00000  -0.08091
   19 Mn1     .YY      -0.05547   0.00000   0.00000   0.00000  -0.08091
   20 Mn1     .ZZ      -0.05547   0.00000   0.00000   0.00000  -0.08091
   21 Mn1     .XY       0.00000  -0.03087   0.00000   0.00000   0.00000
   22 Mn1     .XZ       0.00000   0.00000   0.00000  -0.03087   0.00000
   23 Mn1     .YZ       0.00000   0.00000  -0.03087   0.00000   0.00000
   24 Mn1     .XX      -1.17321   0.00000   0.00000   0.00000  -0.48624
   25 Mn1     .YY      -1.17321   0.00000   0.00000   0.00000  -0.48624
   26 Mn1     .ZZ      -1.17321   0.00000   0.00000   0.00000  -0.48624
   27 Mn1     .XY       0.00000   0.03817   0.00000   0.00000   0.00000
   28 Mn1     .XZ       0.00000   0.00000   0.00000   0.03817   0.00000
   29 Mn1     .YZ       0.00000   0.00000   0.03817   0.00000   0.00000
   30 Mn1     .XXX      0.00000   0.00000  -0.06812   0.00000   0.00000
   31 Mn1     .YYY      0.00000   0.00000   0.00000   0.27248   0.00000
   32 Mn1     .ZZZ      0.00000  -0.27248   0.00000   0.00000   0.00000
   33 Mn1     .XYY      0.00000   0.00000  -0.18279   0.00000   0.00000
   34 Mn1     .XXY      0.00000   0.00000   0.00000   0.27418   0.00000
   35 Mn1     .XXZ      0.00000  -0.18279   0.00000   0.00000   0.00000
   36 Mn1     .XZZ      0.00000   0.00000   0.18279   0.00000   0.00000
   37 Mn1     .YZZ      0.00000   0.00000   0.00000   0.18279   0.00000
   38 Mn1     .YYZ      0.00000  -0.18279   0.00000   0.00000   0.00000
   39 Mn1     .XYZ     -1.21358   0.00000   0.00000   0.00000  -0.11069
   40 O2      .S       -0.02309  -0.24582  -0.24582  -0.24582  -0.29958
   41 O2      .S       -0.54629  -0.02294  -0.02294  -0.02294  -0.37544
   42 O2      .X       -0.05919   0.08697   0.04256   0.08697   0.05890
   43 O2      .Y       -0.05919   0.08697   0.08697   0.04256   0.05890
   44 O2      .Z       -0.05919   0.04256   0.08697   0.08697   0.05890
   45 O2      .S        1.64970   2.21286   2.21286   2.21286   3.75339
   46 O2      .X       -0.65397  -0.28992  -0.04165  -0.28992  -0.57544
   47 O2      .Y       -0.65397  -0.28992  -0.28992  -0.04165  -0.57544
   48 O2      .Z       -0.65397  -0.04165  -0.28992  -0.28992  -0.57544
   49 O2      .XX       0.07897  -0.78119  -0.89644  -0.78119  -0.93549
   50 O2      .YY       0.07897  -0.78119  -0.78119  -0.89644  -0.93549
   51 O2      .ZZ       0.07897  -0.89644  -0.78119  -0.78119  -0.93549
   52 O2      .XY       0.38849   0.06582   0.04116   0.04116   0.13284
   53 O2      .XZ       0.38849   0.04116   0.04116   0.06582   0.13284
   54 O2      .YZ       0.38849   0.04116   0.06582   0.04116   0.13284
   55 O3      .S       -0.02309  -0.24582   0.24582   0.24582  -0.29958
   56 O3      .S       -0.54629  -0.02294   0.02294   0.02294  -0.37544
   57 O3      .X        0.05919  -0.08697   0.04256   0.08697  -0.05890
   58 O3      .Y        0.05919  -0.08697   0.08697   0.04256  -0.05890
   59 O3      .Z       -0.05919   0.04256  -0.08697  -0.08697   0.05890
   60 O3      .S        1.64970   2.21286  -2.21286  -2.21286   3.75339
   61 O3      .X        0.65397   0.28992  -0.04165  -0.28992   0.57544
   62 O3      .Y        0.65397   0.28992  -0.28992  -0.04165   0.57544
   63 O3      .Z       -0.65397  -0.04165   0.28992   0.28992  -0.57544
   64 O3      .XX       0.07897  -0.78119   0.89644   0.78119  -0.93549
   65 O3      .YY       0.07897  -0.78119   0.78119   0.89644  -0.93549
   66 O3      .ZZ       0.07897  -0.89644   0.78119   0.78119  -0.93549
   67 O3      .XY       0.38849   0.06582  -0.04116  -0.04116   0.13284
   68 O3      .XZ      -0.38849  -0.04116   0.04116   0.06582  -0.13284
   69 O3      .YZ      -0.38849  -0.04116   0.06582   0.04116  -0.13284
   70 O4      .S       -0.02309   0.24582   0.24582  -0.24582  -0.29958
   71 O4      .S       -0.54629   0.02294   0.02294  -0.02294  -0.37544
   72 O4      .X        0.05919   0.08697   0.04256  -0.08697  -0.05890
   73 O4      .Y       -0.05919  -0.08697  -0.08697   0.04256   0.05890
   74 O4      .Z        0.05919   0.04256   0.08697  -0.08697  -0.05890
   75 O4      .S        1.64970  -2.21286  -2.21286   2.21286   3.75339
   76 O4      .X        0.65397  -0.28992  -0.04165   0.28992   0.57544
   77 O4      .Y       -0.65397   0.28992   0.28992  -0.04165  -0.57544
   78 O4      .Z        0.65397  -0.04165  -0.28992   0.28992   0.57544
   79 O4      .XX       0.07897   0.78119   0.89644  -0.78119  -0.93549
   80 O4      .YY       0.07897   0.78119   0.78119  -0.89644  -0.93549
   81 O4      .ZZ       0.07897   0.89644   0.78119  -0.78119  -0.93549
   82 O4      .XY      -0.38849   0.06582   0.04116  -0.04116  -0.13284
   83 O4      .XZ       0.38849  -0.04116  -0.04116   0.06582   0.13284
   84 O4      .YZ      -0.38849   0.04116   0.06582  -0.04116  -0.13284
   85 O5      .S       -0.02309   0.24582  -0.24582   0.24582  -0.29958
   86 O5      .S       -0.54629   0.02294  -0.02294   0.02294  -0.37544
   87 O5      .X       -0.05919  -0.08697   0.04256  -0.08697   0.05890
   88 O5      .Y        0.05919   0.08697  -0.08697   0.04256  -0.05890
   89 O5      .Z        0.05919   0.04256  -0.08697   0.08697  -0.05890
   90 O5      .S        1.64970  -2.21286   2.21286  -2.21286   3.75339
   91 O5      .X       -0.65397   0.28992  -0.04165   0.28992  -0.57544
   92 O5      .Y        0.65397  -0.28992   0.28992  -0.04165   0.57544
   93 O5      .Z        0.65397  -0.04165   0.28992  -0.28992   0.57544
   94 O5      .XX       0.07897   0.78119  -0.89644   0.78119  -0.93549
   95 O5      .YY       0.07897   0.78119  -0.78119   0.89644  -0.93549
   96 O5      .ZZ       0.07897   0.89644  -0.78119   0.78119  -0.93549
   97 O5      .XY      -0.38849   0.06582  -0.04116   0.04116  -0.13284
   98 O5      .XZ      -0.38849   0.04116  -0.04116   0.06582  -0.13284
   99 O5      .YZ       0.38849  -0.04116   0.06582  -0.04116   0.13284
                          96
                           V    
     Eigenvalues --   458.28992
    1 Mn1     .S        0.15577
    2 Mn1     .S        1.30419
    3 Mn1     .X        0.00000
    4 Mn1     .Y        0.00000
    5 Mn1     .Z        0.00000
    6 Mn1     .S       17.90937
    7 Mn1     .X        0.00000
    8 Mn1     .Y        0.00000
    9 Mn1     .Z        0.00000
   10 Mn1     .S       -0.70584
   11 Mn1     .X        0.00000
   12 Mn1     .Y        0.00000
   13 Mn1     .Z        0.00000
   14 Mn1     .S       -0.17873
   15 Mn1     .X        0.00000
   16 Mn1     .Y        0.00000
   17 Mn1     .Z        0.00000
   18 Mn1     .XX       8.11182
   19 Mn1     .YY       8.11182
   20 Mn1     .ZZ       8.11182
   21 Mn1     .XY       0.00000
   22 Mn1     .XZ       0.00000
   23 Mn1     .YZ       0.00000
   24 Mn1     .XX       0.33232
   25 Mn1     .YY       0.33232
   26 Mn1     .ZZ       0.33232
   27 Mn1     .XY       0.00000
   28 Mn1     .XZ       0.00000
   29 Mn1     .YZ       0.00000
   30 Mn1     .XXX      0.00000
   31 Mn1     .YYY      0.00000
   32 Mn1     .ZZZ      0.00000
   33 Mn1     .XYY      0.00000
   34 Mn1     .XXY      0.00000
   35 Mn1     .XXZ      0.00000
   36 Mn1     .XZZ      0.00000
   37 Mn1     .YZZ      0.00000
   38 Mn1     .YYZ      0.00000
   39 Mn1     .XYZ     -0.10763
   40 O2      .S        0.01720
   41 O2      .S        0.04734
   42 O2      .X       -0.04000
   43 O2      .Y       -0.04000
   44 O2      .Z       -0.04000
   45 O2      .S       -0.31843
   46 O2      .X        0.01582
   47 O2      .Y        0.01582
   48 O2      .Z        0.01582
   49 O2      .XX       0.09277
   50 O2      .YY       0.09277
   51 O2      .ZZ       0.09277
   52 O2      .XY       0.04187
   53 O2      .XZ       0.04187
   54 O2      .YZ       0.04187
   55 O3      .S        0.01720
   56 O3      .S        0.04734
   57 O3      .X        0.04000
   58 O3      .Y        0.04000
   59 O3      .Z       -0.04000
   60 O3      .S       -0.31843
   61 O3      .X       -0.01582
   62 O3      .Y       -0.01582
   63 O3      .Z        0.01582
   64 O3      .XX       0.09277
   65 O3      .YY       0.09277
   66 O3      .ZZ       0.09277
   67 O3      .XY       0.04187
   68 O3      .XZ      -0.04187
   69 O3      .YZ      -0.04187
   70 O4      .S        0.01720
   71 O4      .S        0.04734
   72 O4      .X        0.04000
   73 O4      .Y       -0.04000
   74 O4      .Z        0.04000
   75 O4      .S       -0.31843
   76 O4      .X       -0.01582
   77 O4      .Y        0.01582
   78 O4      .Z       -0.01582
   79 O4      .XX       0.09277
   80 O4      .YY       0.09277
   81 O4      .ZZ       0.09277
   82 O4      .XY      -0.04187
   83 O4      .XZ       0.04187
   84 O4      .YZ      -0.04187
   85 O5      .S        0.01720
   86 O5      .S        0.04734
   87 O5      .X       -0.04000
   88 O5      .Y        0.04000
   89 O5      .Z        0.04000
   90 O5      .S       -0.31843
   91 O5      .X        0.01582
   92 O5      .Y       -0.01582
   93 O5      .Z       -0.01582
   94 O5      .XX       0.09277
   95 O5      .YY       0.09277
   96 O5      .ZZ       0.09277
   97 O5      .XY      -0.04187
   98 O5      .XZ      -0.04187
   99 O5      .YZ       0.04187
