 Entering Gaussian System

 Standard orientation:



 -------------------------------------------------------
     1   7    0     0.000000     0.000000     0.000000
     2   9    0     1.397987     0.000000     0.000000
     3   9    0    -0.698993     1.210692     0.000000
     4   9    0    -0.698993    -1.210692     0.000000
     5   9    0     0.000000     0.000000     1.563479
     6   9    0     0.000000     0.000000    -1.563479
 -------------------------------------------------------

 AO basis set (Overlap normalization):
 Atom  N1     Shell     1 S    6
   4.1735114600e+03   1.8347721600e-03
   6.2745791100e+02   1.3994627000e-02
   1.4290209300e+02   6.8586551810e-02
   4.0234329300e+01   2.3224087300e-01
   1.2820212900e+01   4.6906994810e-01
   4.3904370100e+00   3.6045519910e-01
 Atom  N1     Shell     2 SP   3
   1.1626361860e+01  -1.1496118170e-01   6.7579743880e-02
   2.7162798070e+00  -1.6911747860e-01   3.2390729590e-01
   7.7221839660e-01   1.1458519470e+00   7.4089513980e-01
 Atom  N1     Shell     3 SP   1
   2.1203149750e-01   1.0000000000e+00   1.0000000000e+00
 Atom  N1     Shell     4 D    1
   8.0000000000e-01   1.0000000000e+00
 Atom  F2     Shell     5 S    6
   7.0017130900e+03   1.8196169010e-03
   1.0513660900e+03   1.3916079610e-02
   2.3928569000e+02   6.8405324530e-02
   6.7397445300e+01   2.3318576010e-01
   2.1519957300e+01   4.7126743920e-01
   7.4031013000e+00   3.5661854620e-01
 Atom  F2     Shell     6 SP   3
   2.0847952800e+01  -1.0850697510e-01   7.1628724240e-02
   4.8083083400e+00  -1.4645165810e-01   3.4591210270e-01
   1.3440698600e+00   1.1286885810e+00   7.2246995640e-01
 Atom  F2     Shell     7 SP   1
   3.5815139300e-01   1.0000000000e+00   1.0000000000e+00
 Atom  F2     Shell     8 D    1
   8.0000000000e-01   1.0000000000e+00
 Atom  F3     Shell     9 S    6
   7.0017130900e+03   1.8196169010e-03
   1.0513660900e+03   1.3916079610e-02
   2.3928569000e+02   6.8405324530e-02
   6.7397445300e+01   2.3318576010e-01
   2.1519957300e+01   4.7126743920e-01
   7.4031013000e+00   3.5661854620e-01
 Atom  F3     Shell    10 SP   3
   2.0847952800e+01  -1.0850697510e-01   7.1628724240e-02
   4.8083083400e+00  -1.4645165810e-01   3.4591210270e-01
   1.3440698600e+00   1.1286885810e+00   7.2246995640e-01
 Atom  F3     Shell    11 SP   1
   3.5815139300e-01   1.0000000000e+00   1.0000000000e+00
 Atom  F3     Shell    12 D    1
   8.0000000000e-01   1.0000000000e+00
 Atom  F4     Shell    13 S    6
   7.0017130900e+03   1.8196169010e-03
   1.0513660900e+03   1.3916079610e-02
   2.3928569000e+02   6.8405324530e-02
   6.7397445300e+01   2.3318576010e-01
   2.1519957300e+01   4.7126743920e-01
   7.4031013000e+00   3.5661854620e-01
 Atom  F4     Shell    14 SP   3
   2.0847952800e+01  -1.0850697510e-01   7.1628724240e-02
   4.8083083400e+00  -1.4645165810e-01   3.4591210270e-01
   1.3440698600e+00   1.1286885810e+00   7.2246995640e-01
 Atom  F4     Shell    15 SP   1
   3.5815139300e-01   1.0000000000e+00   1.0000000000e+00
 Atom  F4     Shell    16 D    1
   8.0000000000e-01   1.0000000000e+00
 Atom  F5     Shell    17 S    6
   7.0017130900e+03   1.8196169010e-03
   1.0513660900e+03   1.3916079610e-02
   2.3928569000e+02   6.8405324530e-02
   6.7397445300e+01   2.3318576010e-01
   2.1519957300e+01   4.7126743920e-01
   7.4031013000e+00   3.5661854620e-01
 Atom  F5     Shell    18 SP   3
   2.0847952800e+01  -1.0850697510e-01   7.1628724240e-02
   4.8083083400e+00  -1.4645165810e-01   3.4591210270e-01
   1.3440698600e+00   1.1286885810e+00   7.2246995640e-01
 Atom  F5     Shell    19 SP   1
   3.5815139300e-01   1.0000000000e+00   1.0000000000e+00
 Atom  F5     Shell    20 D    1
   8.0000000000e-01   1.0000000000e+00
 Atom  F6     Shell    21 S    6
   7.0017130900e+03   1.8196169010e-03
   1.0513660900e+03   1.3916079610e-02
   2.3928569000e+02   6.8405324530e-02
   6.7397445300e+01   2.3318576010e-01
   2.1519957300e+01   4.7126743920e-01
   7.4031013000e+00   3.5661854620e-01
 Atom  F6     Shell    22 SP   3
   2.0847952800e+01  -1.0850697510e-01   7.1628724240e-02
   4.8083083400e+00  -1.4645165810e-01   3.4591210270e-01
   1.3440698600e+00   1.1286885810e+00   7.2246995640e-01
 Atom  F6     Shell    23 SP   1
   3.5815139300e-01   1.0000000000e+00   1.0000000000e+00
 Atom  F6     Shell    24 D    1
   8.0000000000e-01   1.0000000000e+00

  Molecular Orbital Coefficients:
                           1         2         3         4         5
                           O         O         O         O         O    
     Eigenvalues --   -32.20406 -31.15643 -23.79140 -18.74292 -18.74291
    1 N1      .S        0.00000  -0.01513  -0.16410   0.00000   0.00000
    2 N1      .S        0.00000   0.03069   0.42125  -0.00000   0.00000
    3 N1      .X       -0.00000   0.00000   0.00000   0.43092   0.00000
    4 N1      .Y        0.00000  -0.00000  -0.00000  -0.00000   0.43092
    5 N1      .Z        0.14601   0.00000  -0.00000  -0.00000   0.00000
    6 N1      .S       -0.00000   0.05641   0.36068  -0.00000  -0.00000
    7 N1      .X       -0.00000  -0.00000   0.00000   0.14422   0.00000
    8 N1      .Y        0.00000  -0.00000  -0.00000  -0.00000   0.14422
    9 N1      .Z        0.00813  -0.00000   0.00000  -0.00000   0.00000
   10 N1      .XX       0.00000  -0.01120  -0.00352   0.00844   0.00000
   11 N1      .YY       0.00000  -0.01120  -0.00352  -0.00844  -0.00000
   12 N1      .ZZ      -0.00000   0.02285  -0.00779  -0.00000   0.00000
   13 N1      .XY      -0.00000   0.00000   0.00000   0.00000  -0.00975
   14 N1      .XZ      -0.00000  -0.00000  -0.00000  -0.00000  -0.00000
   15 N1      .YZ       0.00000  -0.00000  -0.00000   0.00000  -0.00000
   16 F2      .S       -0.00000   0.06389   0.07810   0.06551   0.00000
   17 F2      .S        0.00000  -0.14213  -0.15688  -0.13163  -0.00000
   18 F2      .X        0.00000  -0.00120  -0.15925  -0.36691  -0.00000
   19 F2      .Y       -0.00000  -0.00000  -0.00000  -0.00000   0.14338
   20 F2      .Z        0.02371   0.00000   0.00000  -0.00000   0.00000
   21 F2      .S        0.00000  -0.15612  -0.27096  -0.24861  -0.00000
   22 F2      .X       -0.00000   0.00826  -0.07530  -0.20992  -0.00000
   23 F2      .Y       -0.00000   0.00000   0.00000  -0.00000   0.09001
   24 F2      .Z        0.01542   0.00000  -0.00000  -0.00000  -0.00000
   25 F2      .XX      -0.00000  -0.00497   0.02493   0.02747   0.00000
   26 F2      .YY      -0.00000  -0.00080   0.00398   0.00066   0.00000
   27 F2      .ZZ      -0.00000   0.00151   0.00394   0.00046   0.00000
   28 F2      .XY       0.00000  -0.00000  -0.00000   0.00000  -0.01466
   29 F2      .XZ      -0.00418  -0.00000   0.00000   0.00000   0.00000
   30 F2      .YZ      -0.00000   0.00000   0.00000  -0.00000  -0.00000
   31 F3      .S       -0.00000   0.06389   0.07810  -0.03276   0.05674
   32 F3      .S        0.00000  -0.14213  -0.15688   0.06581  -0.11399
   33 F3      .X        0.00000   0.00060   0.07962   0.01580   0.22096
   34 F3      .Y       -0.00000  -0.00104  -0.13791   0.22096  -0.23934
   35 F3      .Z        0.02371   0.00000   0.00000  -0.00000   0.00000
   36 F3      .S        0.00000  -0.15612  -0.27096   0.12431  -0.21531
   37 F3      .X        0.00000  -0.00413   0.03765   0.01503   0.12987
   38 F3      .Y       -0.00000   0.00715  -0.06521   0.12987  -0.13494
   39 F3      .Z        0.01542   0.00000  -0.00000  -0.00000   0.00000
   40 F3      .XX       0.00000  -0.00185   0.00922   0.00584   0.01187
   41 F3      .YY       0.00000  -0.00393   0.01969  -0.01991   0.01249
   42 F3      .ZZ      -0.00000   0.00151   0.00394  -0.00023   0.00040
   43 F3      .XY      -0.00000   0.00208  -0.01048   0.00035  -0.01528
   44 F3      .XZ       0.00209   0.00000  -0.00000  -0.00000  -0.00000
   45 F3      .YZ      -0.00362  -0.00000   0.00000  -0.00000  -0.00000
   46 F4      .S       -0.00000   0.06389   0.07810  -0.03276  -0.05674
   47 F4      .S        0.00000  -0.14213  -0.15688   0.06581   0.11399
   48 F4      .X       -0.00000   0.00060   0.07962   0.01580  -0.22096
   49 F4      .Y        0.00000   0.00104   0.13791  -0.22096  -0.23934
   50 F4      .Z        0.02371   0.00000   0.00000  -0.00000   0.00000
   51 F4      .S        0.00000  -0.15612  -0.27096   0.12431   0.21531
   52 F4      .X        0.00000  -0.00413   0.03765   0.01503  -0.12987
   53 F4      .Y        0.00000  -0.00715   0.06521  -0.12987  -0.13494
   54 F4      .Z        0.01542   0.00000  -0.00000  -0.00000   0.00000
   55 F4      .XX       0.00000  -0.00185   0.00922   0.00584  -0.01187
   56 F4      .YY       0.00000  -0.00393   0.01969  -0.01991  -0.01249
   57 F4      .ZZ      -0.00000   0.00151   0.00394  -0.00023  -0.00040
   58 F4      .XY       0.00000  -0.00208   0.01048  -0.00035  -0.01528
   59 F4      .XZ       0.00209   0.00000  -0.00000   0.00000  -0.00000
   60 F4      .YZ       0.00362   0.00000  -0.00000  -0.00000  -0.00000
   61 F5      .S       -0.16020  -0.15213   0.06090  -0.00000   0.00000
   62 F5      .S        0.34846   0.33922  -0.11883   0.00000  -0.00000
   63 F5      .X        0.00000   0.00000  -0.00000   0.05713   0.00000
   64 F5      .Y        0.00000  -0.00000  -0.00000  -0.00000   0.05713
   65 F5      .Z       -0.04481  -0.02725  -0.08102   0.00000  -0.00000
   66 F5      .S        0.36679   0.33563  -0.20842   0.00000   0.00000
   67 F5      .X       -0.00000  -0.00000  -0.00000   0.02941   0.00000
   68 F5      .Y       -0.00000   0.00000   0.00000  -0.00000   0.02941
   69 F5      .Z       -0.04056  -0.01930  -0.03537   0.00000  -0.00000
   70 F5      .XX      -0.00020   0.00348   0.00406  -0.00168  -0.00000
   71 F5      .YY      -0.00020   0.00348   0.00406   0.00168   0.00000
   72 F5      .ZZ       0.01933   0.01480   0.01848  -0.00000   0.00000
   73 F5      .XY       0.00000   0.00000   0.00000  -0.00000   0.00195
   74 F5      .XZ       0.00000   0.00000   0.00000  -0.00545  -0.00000
   75 F5      .YZ       0.00000  -0.00000  -0.00000   0.00000  -0.00545
   76 F6      .S        0.16020  -0.15213   0.06090  -0.00000  -0.00000
   77 F6      .S       -0.34846   0.33922  -0.11883   0.00000  -0.00000
   78 F6      .X       -0.00000   0.00000  -0.00000   0.05713   0.00000
   79 F6      .Y        0.00000  -0.00000  -0.00000  -0.00000   0.05713
   80 F6      .Z       -0.04481   0.02725   0.08102  -0.00000  -0.00000
   81 F6      .S       -0.36679   0.33563  -0.20842   0.00000   0.00000
   82 F6      .X        0.00000  -0.00000  -0.00000   0.02941   0.00000
   83 F6      .Y       -0.00000   0.00000   0.00000  -0.00000   0.02941
   84 F6      .Z       -0.04056   0.01930   0.03537  -0.00000   0.00000
   85 F6      .XX       0.00020   0.00348   0.00406  -0.00168  -0.00000
   86 F6      .YY       0.00020   0.00348   0.00406   0.00168   0.00000
   87 F6      .ZZ      -0.01933   0.01480   0.01848  -0.00000   0.00000
   88 F6      .XY      -0.00000   0.00000   0.00000  -0.00000   0.00195
   89 F6      .XZ       0.00000  -0.00000  -0.00000   0.00545   0.00000
   90 F6      .YZ      -0.00000   0.00000   0.00000  -0.00000   0.00545
                           6         7         8         9        10
                           O         O         O         O         O    
     Eigenvalues --   -17.66226 -14.17443 -14.17440 -13.78500 -13.78498
    1 N1      .S       -0.00000   0.00000   0.00000  -0.00000  -0.00000
    2 N1      .S       -0.00000   0.00000   0.00000   0.00000   0.00000
    3 N1      .X        0.00000   0.00000  -0.00000  -0.00000  -0.05723
    4 N1      .Y       -0.00000   0.00000  -0.00000  -0.05723   0.00000
    5 N1      .Z        0.43502  -0.00000   0.00000  -0.00000  -0.00000
    6 N1      .S        0.00000  -0.00000  -0.00000   0.00000  -0.00000
    7 N1      .X       -0.00000   0.00000  -0.00000   0.00000   0.09872
    8 N1      .Y        0.00000  -0.00000   0.00000   0.09872  -0.00000
    9 N1      .Z        0.16236   0.00000   0.00000   0.00000   0.00000
   10 N1      .XX      -0.00000   0.00000  -0.00000  -0.00000  -0.03399
   11 N1      .YY      -0.00000  -0.00000   0.00000   0.00000   0.03399
   12 N1      .ZZ      -0.00000  -0.00000  -0.00000   0.00000   0.00000
   13 N1      .XY      -0.00000  -0.00000   0.00000   0.03925  -0.00000
   14 N1      .XZ       0.00000   0.03557  -0.00000   0.00000   0.00000
   15 N1      .YZ      -0.00000   0.00000   0.03557  -0.00000  -0.00000
   16 F2      .S        0.00000   0.00000  -0.00000  -0.00000  -0.00265
   17 F2      .S        0.00000   0.00000  -0.00000   0.00000   0.00909
   18 F2      .X       -0.00000  -0.00000   0.00000   0.00000   0.21587
   19 F2      .Y       -0.00000   0.00000   0.00000   0.50461  -0.00000
   20 F2      .Z        0.17483   0.48334  -0.00000   0.00000   0.00000
   21 F2      .S       -0.00000  -0.00000   0.00000  -0.00000  -0.03227
   22 F2      .X        0.00000  -0.00000   0.00000   0.00000   0.16281
   23 F2      .Y       -0.00000   0.00000   0.00000   0.32875  -0.00000
   24 F2      .Z        0.09997   0.32735  -0.00000   0.00000   0.00000
   25 F2      .XX       0.00000   0.00000  -0.00000  -0.00000  -0.00976
   26 F2      .YY       0.00000   0.00000  -0.00000   0.00000   0.00673
   27 F2      .ZZ       0.00000   0.00000  -0.00000   0.00000   0.00281
   28 F2      .XY       0.00000  -0.00000   0.00000  -0.01363   0.00000
   29 F2      .XZ      -0.01357  -0.01808   0.00000   0.00000   0.00000
   30 F2      .YZ       0.00000   0.00000   0.00367  -0.00000   0.00000
   31 F3      .S        0.00000   0.00000   0.00000  -0.00230   0.00133
   32 F3      .S        0.00000  -0.00000   0.00000   0.00787  -0.00455
   33 F3      .X        0.00000  -0.00000   0.00000   0.12502   0.43242
   34 F3      .Y        0.00000  -0.00000   0.00000   0.28805   0.12503
   35 F3      .Z        0.17483  -0.24167   0.41858  -0.00000  -0.00000
   36 F3      .S       -0.00000   0.00000  -0.00000  -0.02794   0.01613
   37 F3      .X       -0.00000  -0.00000   0.00000   0.07185   0.28726
   38 F3      .Y        0.00000  -0.00000   0.00000   0.20429   0.07185
   39 F3      .Z        0.09997  -0.16367   0.28349  -0.00000  -0.00000
   40 F3      .XX       0.00000  -0.00000   0.00000   0.00737   0.00755
   41 F3      .YY       0.00000   0.00000   0.00000  -0.00999  -0.00603
   42 F3      .ZZ       0.00000  -0.00000   0.00000   0.00243  -0.00141
   43 F3      .XY       0.00000   0.00000   0.00000   0.00373  -0.01002
   44 F3      .XZ       0.00678  -0.00177   0.00942  -0.00000  -0.00000
   45 F3      .YZ      -0.01175   0.00942  -0.01264   0.00000   0.00000
   46 F4      .S        0.00000   0.00000  -0.00000   0.00230   0.00133
   47 F4      .S        0.00000   0.00000  -0.00000  -0.00787  -0.00455
   48 F4      .X       -0.00000   0.00000  -0.00000  -0.12502   0.43242
   49 F4      .Y       -0.00000  -0.00000   0.00000   0.28805  -0.12503
   50 F4      .Z        0.17483  -0.24167  -0.41858   0.00000  -0.00000
   51 F4      .S       -0.00000  -0.00000   0.00000   0.02794   0.01613
   52 F4      .X       -0.00000  -0.00000  -0.00000  -0.07185   0.28726
   53 F4      .Y       -0.00000  -0.00000   0.00000   0.20429  -0.07185
   54 F4      .Z        0.09997  -0.16367  -0.28349   0.00000  -0.00000
   55 F4      .XX       0.00000   0.00000  -0.00000  -0.00737   0.00755
   56 F4      .YY       0.00000   0.00000  -0.00000   0.00999  -0.00603
   57 F4      .ZZ       0.00000   0.00000  -0.00000  -0.00243  -0.00141
   58 F4      .XY      -0.00000  -0.00000   0.00000   0.00373   0.01002
   59 F4      .XZ       0.00678  -0.00177  -0.00942   0.00000  -0.00000
   60 F4      .YZ       0.01175  -0.00942  -0.01264   0.00000  -0.00000
   61 F5      .S        0.05923  -0.00000   0.00000   0.00000   0.00000
   62 F5      .S       -0.12496  -0.00000   0.00000   0.00000   0.00000
   63 F5      .X       -0.00000   0.19132  -0.00000   0.00000   0.03033
   64 F5      .Y       -0.00000   0.00000   0.19132   0.03033  -0.00000
   65 F5      .Z       -0.24694   0.00000  -0.00000  -0.00000  -0.00000
   66 F5      .S       -0.20729   0.00000  -0.00000  -0.00000  -0.00000
   67 F5      .X       -0.00000   0.14319  -0.00000   0.00000   0.01794
   68 F5      .Y       -0.00000   0.00000   0.14319   0.01794  -0.00000
   69 F5      .Z       -0.15001   0.00000   0.00000  -0.00000  -0.00000
   70 F5      .XX       0.00000   0.00194  -0.00000  -0.00000  -0.00247
   71 F5      .YY       0.00000  -0.00194   0.00000   0.00000   0.00247
   72 F5      .ZZ       0.02147  -0.00000   0.00000   0.00000   0.00000
   73 F5      .XY      -0.00000  -0.00000  -0.00224   0.00285  -0.00000
   74 F5      .XZ       0.00000  -0.01004   0.00000   0.00000   0.00099
   75 F5      .YZ       0.00000  -0.00000  -0.01004   0.00099  -0.00000
   76 F6      .S       -0.05923   0.00000  -0.00000   0.00000   0.00000
   77 F6      .S        0.12496   0.00000  -0.00000   0.00000   0.00000
   78 F6      .X        0.00000  -0.19132   0.00000   0.00000   0.03033
   79 F6      .Y       -0.00000  -0.00000  -0.19132   0.03033  -0.00000
   80 F6      .Z       -0.24694   0.00000  -0.00000   0.00000   0.00000
   81 F6      .S        0.20729  -0.00000   0.00000  -0.00000  -0.00000
   82 F6      .X        0.00000  -0.14319   0.00000   0.00000   0.01794
   83 F6      .Y       -0.00000  -0.00000  -0.14319   0.01794  -0.00000
   84 F6      .Z       -0.15001   0.00000   0.00000   0.00000   0.00000
   85 F6      .XX      -0.00000  -0.00194   0.00000  -0.00000  -0.00247
   86 F6      .YY      -0.00000   0.00194  -0.00000   0.00000   0.00247
   87 F6      .ZZ      -0.02147   0.00000  -0.00000   0.00000   0.00000
   88 F6      .XY      -0.00000   0.00000   0.00224   0.00285  -0.00000
   89 F6      .XZ       0.00000  -0.01004   0.00000  -0.00000  -0.00099
   90 F6      .YZ      -0.00000  -0.00000  -0.01004  -0.00099   0.00000
                          11        12        13        14        15
                           O         O         O         O         O    
     Eigenvalues --   -12.93516 -11.84552 -11.19389 -10.88440 -10.88440
    1 N1      .S        0.00000   0.00000   0.01445  -0.00000   0.00000
    2 N1      .S        0.00000  -0.00000  -0.02601   0.00000   0.00000
    3 N1      .X        0.00000   0.00000  -0.00000  -0.03911  -0.00000
    4 N1      .Y        0.00000  -0.00000  -0.00000   0.00000  -0.03911
    5 N1      .Z       -0.00000  -0.20481   0.00000  -0.00000  -0.00000
    6 N1      .S       -0.00000  -0.00000  -0.12834   0.00000  -0.00000
    7 N1      .X        0.00000   0.00000   0.00000   0.05947   0.00000
    8 N1      .Y        0.00000  -0.00000   0.00000  -0.00000   0.05947
    9 N1      .Z        0.00000  -0.00407  -0.00000   0.00000   0.00000
   10 N1      .XX       0.00000   0.00000   0.03012  -0.00028  -0.00000
   11 N1      .YY       0.00000   0.00000   0.03012   0.00028   0.00000
   12 N1      .ZZ       0.00000   0.00000  -0.06131   0.00000  -0.00000
   13 N1      .XY      -0.00000   0.00000  -0.00000  -0.00000   0.00032
   14 N1      .XZ      -0.00000  -0.00000   0.00000  -0.00000  -0.00000
   15 N1      .YZ       0.00000   0.00000   0.00000  -0.00000  -0.00000
   16 F2      .S       -0.00000   0.00000  -0.00647   0.00899   0.00000
   17 F2      .S       -0.00000   0.00000   0.02017  -0.04011  -0.00000
   18 F2      .X       -0.00000  -0.00000  -0.22271   0.08837   0.00000
   19 F2      .Y        0.40493  -0.00000   0.00000   0.00000  -0.08954
   20 F2      .Z        0.00000   0.35312  -0.00000   0.00000   0.00000
   21 F2      .S        0.00000  -0.00000   0.02924  -0.01734  -0.00000
   22 F2      .X       -0.00000   0.00000  -0.16113   0.07518   0.00000
   23 F2      .Y        0.26708  -0.00000  -0.00000   0.00000  -0.06355
   24 F2      .Z        0.00000   0.23328   0.00000   0.00000   0.00000
   25 F2      .XX      -0.00000   0.00000   0.00909  -0.02030  -0.00000
   26 F2      .YY      -0.00000   0.00000   0.00107  -0.00967  -0.00000
   27 F2      .ZZ      -0.00000   0.00000  -0.00300   0.00131   0.00000
   28 F2      .XY      -0.01191  -0.00000   0.00000  -0.00000   0.00371
   29 F2      .XZ       0.00000  -0.00281  -0.00000  -0.00000  -0.00000
   30 F2      .YZ       0.00000   0.00000   0.00000  -0.00000  -0.00000
   31 F3      .S        0.00000  -0.00000  -0.00647  -0.00450   0.00779
   32 F3      .S        0.00000  -0.00000   0.02017   0.02006  -0.03474
   33 F3      .X       -0.35068   0.00000   0.11136  -0.04507  -0.07704
   34 F3      .Y       -0.20247  -0.00000  -0.19288  -0.07703   0.04389
   35 F3      .Z        0.00000   0.35313  -0.00000  -0.00000   0.00000
   36 F3      .S       -0.00000   0.00000   0.02924   0.00867  -0.01501
   37 F3      .X       -0.23131   0.00000   0.08057  -0.02887  -0.06007
   38 F3      .Y       -0.13355  -0.00000  -0.13955  -0.06006   0.04049
   39 F3      .Z        0.00000   0.23329   0.00000  -0.00000   0.00000
   40 F3      .XX      -0.00893  -0.00000   0.00308   0.00376  -0.01207
   41 F3      .YY       0.00893  -0.00000   0.00709   0.01123  -0.01389
   42 F3      .ZZ       0.00000  -0.00000  -0.00300  -0.00065   0.00113
   43 F3      .XY       0.00596  -0.00000  -0.00401  -0.00105   0.00553
   44 F3      .XZ       0.00000   0.00140   0.00000  -0.00000   0.00000
   45 F3      .YZ      -0.00000  -0.00243  -0.00000   0.00000  -0.00000
   46 F4      .S       -0.00000  -0.00000  -0.00647  -0.00450  -0.00779
   47 F4      .S       -0.00000  -0.00000   0.02017   0.02006   0.03474
   48 F4      .X        0.35068  -0.00000   0.11136  -0.04507   0.07704
   49 F4      .Y       -0.20247   0.00000   0.19288   0.07703   0.04389
   50 F4      .Z        0.00000   0.35313  -0.00000  -0.00000  -0.00000
   51 F4      .S        0.00000   0.00000   0.02924   0.00867   0.01501
   52 F4      .X        0.23131  -0.00000   0.08057  -0.02887   0.06007
   53 F4      .Y       -0.13355   0.00000   0.13955   0.06006   0.04049
   54 F4      .Z        0.00000   0.23329   0.00000  -0.00000  -0.00000
   55 F4      .XX       0.00893  -0.00000   0.00308   0.00376   0.01207
   56 F4      .YY      -0.00893  -0.00000   0.00709   0.01123   0.01389
   57 F4      .ZZ      -0.00000  -0.00000  -0.00300  -0.00065  -0.00113
   58 F4      .XY       0.00596  -0.00000   0.00401   0.00105   0.00553
   59 F4      .XZ      -0.00000   0.00140   0.00000  -0.00000  -0.00000
   60 F4      .YZ       0.00000   0.00243   0.00000  -0.00000  -0.00000
   61 F5      .S       -0.00000  -0.00127  -0.00974   0.00000  -0.00000
   62 F5      .S       -0.00000  -0.01417   0.00391  -0.00000  -0.00000
   63 F5      .X       -0.00000  -0.00000   0.00001   0.46824   0.00000
   64 F5      .Y       -0.00000   0.00000  -0.00000  -0.00000   0.46824
   65 F5      .Z        0.00000   0.22957   0.40820  -0.00001   0.00000
   66 F5      .S        0.00000   0.02631   0.06322  -0.00000   0.00000
   67 F5      .X       -0.00000  -0.00000   0.00001   0.32588   0.00000
   68 F5      .Y       -0.00000   0.00000  -0.00000  -0.00000   0.32588
   69 F5      .Z       -0.00000   0.17762   0.27673  -0.00001   0.00000
   70 F5      .XX      -0.00000  -0.00204  -0.00482   0.00040   0.00000
   71 F5      .YY      -0.00000  -0.00204  -0.00482  -0.00040  -0.00000
   72 F5      .ZZ      -0.00000  -0.03089  -0.01940   0.00000  -0.00000
   73 F5      .XY      -0.00000   0.00000   0.00000   0.00000  -0.00046
   74 F5      .XZ       0.00000   0.00000  -0.00000  -0.00943  -0.00000
   75 F5      .YZ       0.00000  -0.00000   0.00000   0.00000  -0.00943
   76 F6      .S       -0.00000   0.00127  -0.00974   0.00000  -0.00000
   77 F6      .S       -0.00000   0.01417   0.00391  -0.00000  -0.00000
   78 F6      .X        0.00000   0.00000   0.00001   0.46824   0.00000
   79 F6      .Y       -0.00000  -0.00000  -0.00000  -0.00000   0.46824
   80 F6      .Z       -0.00000   0.22957  -0.40820   0.00001  -0.00000
   81 F6      .S        0.00000  -0.02631   0.06322  -0.00000   0.00000
   82 F6      .X        0.00000   0.00000   0.00001   0.32588   0.00000
   83 F6      .Y       -0.00000  -0.00000  -0.00000  -0.00000   0.32588
   84 F6      .Z        0.00000   0.17762  -0.27673   0.00001  -0.00000
   85 F6      .XX      -0.00000   0.00204  -0.00482   0.00040   0.00000
   86 F6      .YY      -0.00000   0.00204  -0.00482  -0.00040  -0.00000
   87 F6      .ZZ      -0.00000   0.03089  -0.01940   0.00000  -0.00000
   88 F6      .XY      -0.00000  -0.00000  -0.00000   0.00000  -0.00046
   89 F6      .XZ       0.00000   0.00000   0.00000   0.00943   0.00000
   90 F6      .YZ      -0.00000  -0.00000  -0.00000  -0.00000   0.00943
                          16        17        18        19        20
                           O         O         V         V         V    
     Eigenvalues --   -10.33672 -10.33672  -3.54642  -1.47083  -0.59034
    1 N1      .S       -0.00000  -0.00000  -0.17141  -0.00000   0.00000
    2 N1      .S       -0.00000   0.00000   0.48429   0.00000   0.00000
    3 N1      .X       -0.00000  -0.00000   0.00000   0.00000   0.00000
    4 N1      .Y       -0.00000  -0.00000  -0.00000  -0.00000   0.74604
    5 N1      .Z        0.00000  -0.00000  -0.00000   0.73969   0.00000
    6 N1      .S        0.00000   0.00000   0.91803   0.00000  -0.00000
    7 N1      .X        0.00000  -0.00000   0.00000   0.00000   0.00000
    8 N1      .Y       -0.00000   0.00000  -0.00000  -0.00000   0.53809
    9 N1      .Z       -0.00000   0.00000  -0.00000   0.41400   0.00000
   10 N1      .XX       0.00000  -0.00000  -0.02239  -0.00000  -0.00000
   11 N1      .YY      -0.00000   0.00000  -0.02239  -0.00000   0.00000
   12 N1      .ZZ      -0.00000  -0.00000  -0.01610   0.00000   0.00000
   13 N1      .XY      -0.00000  -0.00000   0.00000  -0.00000   0.04819
   14 N1      .XZ       0.00794  -0.00000   0.00000   0.00000  -0.00000
   15 N1      .YZ       0.00000   0.00795   0.00000  -0.00000   0.00000
   16 F2      .S        0.00000  -0.00000   0.03299   0.00000   0.00000
   17 F2      .S       -0.00000  -0.00000  -0.05622   0.00000  -0.00000
   18 F2      .X        0.00000   0.00000   0.31375   0.00000   0.00000
   19 F2      .Y        0.00000  -0.00000   0.00000   0.00000  -0.17575
   20 F2      .Z       -0.29154   0.00000   0.00000  -0.08187   0.00000
   21 F2      .S       -0.00000   0.00000  -0.24647  -0.00000  -0.00000
   22 F2      .X        0.00000  -0.00000   0.29458   0.00000   0.00000
   23 F2      .Y        0.00000  -0.00000   0.00000   0.00000  -0.14827
   24 F2      .Z       -0.17745   0.00000   0.00000  -0.08442  -0.00000
   25 F2      .XX      -0.00000  -0.00000   0.01818   0.00000   0.00000
   26 F2      .YY      -0.00000  -0.00000   0.00760   0.00000  -0.00000
   27 F2      .ZZ       0.00000  -0.00000   0.00544   0.00000  -0.00000
   28 F2      .XY       0.00000   0.00000  -0.00000   0.00000  -0.02109
   29 F2      .XZ       0.00300  -0.00000  -0.00000  -0.01542  -0.00000
   30 F2      .YZ       0.00000   0.00470   0.00000  -0.00000  -0.00000
   31 F3      .S       -0.00000   0.00000   0.03299  -0.00000   0.04389
   32 F3      .S        0.00000   0.00000  -0.05622  -0.00000  -0.10163
   33 F3      .X       -0.00000  -0.00000  -0.15688  -0.00000  -0.24472
   34 F3      .Y       -0.00000   0.00000   0.27172   0.00000   0.24812
   35 F3      .Z        0.14577  -0.25248   0.00000  -0.08187  -0.00000
   36 F3      .S        0.00000  -0.00000  -0.24647   0.00000  -0.29466
   37 F3      .X       -0.00000  -0.00000  -0.14729  -0.00000  -0.22188
   38 F3      .Y       -0.00000   0.00000   0.25511  -0.00000   0.23605
   39 F3      .Z        0.08873  -0.15368   0.00000  -0.08442  -0.00000
   40 F3      .XX       0.00000   0.00000   0.01024  -0.00000   0.01117
   41 F3      .YY       0.00000   0.00000   0.01553  -0.00000   0.00642
   42 F3      .ZZ       0.00000   0.00000   0.00544  -0.00000  -0.00665
   43 F3      .XY      -0.00000   0.00000  -0.00529  -0.00000  -0.01634
   44 F3      .XZ       0.00428   0.00074  -0.00000   0.00771   0.00000
   45 F3      .YZ       0.00074   0.00343  -0.00000  -0.01336  -0.00000
   46 F4      .S       -0.00000  -0.00000   0.03299  -0.00000  -0.04389
   47 F4      .S        0.00000  -0.00000  -0.05622  -0.00000   0.10163
   48 F4      .X       -0.00000   0.00000  -0.15688  -0.00000   0.24472
   49 F4      .Y        0.00000   0.00000  -0.27172  -0.00000   0.24812
   50 F4      .Z        0.14577   0.25248   0.00000  -0.08187  -0.00000
   51 F4      .S        0.00000   0.00000  -0.24647   0.00000   0.29466
   52 F4      .X       -0.00000   0.00000  -0.14729  -0.00000   0.22188
   53 F4      .Y        0.00000   0.00000  -0.25511   0.00000   0.23605
   54 F4      .Z        0.08873   0.15368   0.00000  -0.08442  -0.00000
   55 F4      .XX       0.00000  -0.00000   0.01024  -0.00000  -0.01117
   56 F4      .YY       0.00000  -0.00000   0.01553  -0.00000  -0.00642
   57 F4      .ZZ       0.00000  -0.00000   0.00544  -0.00000   0.00665
   58 F4      .XY       0.00000   0.00000   0.00529   0.00000  -0.01634
   59 F4      .XZ       0.00428  -0.00074   0.00000   0.00771   0.00000
   60 F4      .YZ      -0.00074   0.00343   0.00000   0.01336   0.00000
   61 F5      .S       -0.00000   0.00000   0.01988   0.03613  -0.00000
   62 F5      .S       -0.00000   0.00000  -0.02952  -0.08504   0.00000
   63 F5      .X        0.43492  -0.00000  -0.00000  -0.00000  -0.00000
   64 F5      .Y        0.00000   0.43491   0.00000   0.00000  -0.06682
   65 F5      .Z       -0.00000   0.00000   0.25250   0.36919   0.00000
   66 F5      .S        0.00000  -0.00000  -0.15925  -0.20584   0.00000
   67 F5      .X        0.30445  -0.00000  -0.00000   0.00000  -0.00000
   68 F5      .Y        0.00000   0.30445   0.00000   0.00000  -0.07295
   69 F5      .Z       -0.00000  -0.00000   0.23427   0.31789  -0.00000
   70 F5      .XX      -0.00202   0.00000   0.00372  -0.00579  -0.00000
   71 F5      .YY       0.00202  -0.00000   0.00372  -0.00579   0.00000
   72 F5      .ZZ       0.00000   0.00000   0.01374   0.01809   0.00000
   73 F5      .XY       0.00000   0.00233   0.00000  -0.00000   0.00373
   74 F5      .XZ      -0.00920   0.00000   0.00000   0.00000  -0.00000
   75 F5      .YZ      -0.00000  -0.00920  -0.00000   0.00000  -0.00760
   76 F6      .S        0.00000   0.00000   0.01988  -0.03613  -0.00000
   77 F6      .S        0.00000   0.00000  -0.02952   0.08504  -0.00000
   78 F6      .X       -0.43492   0.00000  -0.00000   0.00000  -0.00000
   79 F6      .Y       -0.00000  -0.43491   0.00000  -0.00000  -0.06682
   80 F6      .Z       -0.00000   0.00000  -0.25250   0.36919   0.00000
   81 F6      .S       -0.00000   0.00000  -0.15925   0.20584   0.00000
   82 F6      .X       -0.30445   0.00000  -0.00000  -0.00000  -0.00000
   83 F6      .Y       -0.00000  -0.30445   0.00000   0.00000  -0.07295
   84 F6      .Z       -0.00000  -0.00000  -0.23427   0.31789   0.00000
   85 F6      .XX       0.00202  -0.00000   0.00372   0.00579  -0.00000
   86 F6      .YY      -0.00202   0.00000   0.00372   0.00579   0.00000
   87 F6      .ZZ      -0.00000   0.00000   0.01374  -0.01809   0.00000
   88 F6      .XY      -0.00000  -0.00233   0.00000   0.00000   0.00373
   89 F6      .XZ      -0.00920   0.00000  -0.00000   0.00000   0.00000
   90 F6      .YZ      -0.00000  -0.00920   0.00000   0.00000   0.00760
                          21        22        23        24
                           V         V         V         V    
     Eigenvalues --    -0.59034  16.26025  16.26026  18.25667
    1 N1      .S        0.00000   0.00000  -0.00000  -0.06039
    2 N1      .S       -0.00000   0.00000  -0.00001  -0.89517
    3 N1      .X        0.74604  -0.00000  -0.62768   0.00000
    4 N1      .Y       -0.00000  -0.62768   0.00000  -0.00000
    5 N1      .Z       -0.00000   0.00000  -0.00000   0.00000
    6 N1      .S       -0.00000  -0.00000   0.00002   2.02024
    7 N1      .X        0.53809   0.00000   2.00446  -0.00001
    8 N1      .Y       -0.00000   2.00447  -0.00000   0.00000
    9 N1      .Z        0.00000  -0.00000   0.00000  -0.00000
   10 N1      .XX      -0.04174   0.00000   0.04546  -0.11548
   11 N1      .YY       0.04174  -0.00000  -0.04547  -0.11548
   12 N1      .ZZ      -0.00000   0.00000  -0.00000  -0.20209
   13 N1      .XY      -0.00000  -0.05250   0.00000   0.00000
   14 N1      .XZ      -0.00000   0.00000  -0.00000   0.00000
   15 N1      .YZ       0.00000  -0.00000  -0.00000  -0.00000
   16 F2      .S        0.05069   0.00000   0.02640  -0.00351
   17 F2      .S       -0.11735  -0.00000  -0.17205  -0.54819
   18 F2      .X        0.38940  -0.00000  -0.15414  -0.06520
   19 F2      .Y        0.00000  -0.27731   0.00000  -0.00000
   20 F2      .Z        0.00000   0.00000   0.00000   0.00000
   21 F2      .S       -0.34024  -0.00000  -0.61524   0.62059
   22 F2      .X        0.36415   0.00000   0.55974   0.29304
   23 F2      .Y        0.00000  -0.13694   0.00000  -0.00000
   24 F2      .Z       -0.00000   0.00000  -0.00000   0.00000
   25 F2      .XX       0.02293  -0.00000  -0.22949  -0.34041
   26 F2      .YY      -0.00262   0.00000   0.00916  -0.18044
   27 F2      .ZZ      -0.00768  -0.00000  -0.02999  -0.21189
   28 F2      .XY       0.00000  -0.01088   0.00000  -0.00000
   29 F2      .XZ       0.00000  -0.00000   0.00000  -0.00000
   30 F2      .YZ      -0.00000  -0.00000  -0.00000   0.00000
   31 F3      .S       -0.02534   0.02287  -0.01320  -0.00352
   32 F3      .S        0.05868  -0.14900   0.08603  -0.54819
   33 F3      .X       -0.03446  -0.05333  -0.24652   0.03260
   34 F3      .Y       -0.24472  -0.18494  -0.05333  -0.05647
   35 F3      .Z        0.00000   0.00000  -0.00000   0.00000
   36 F3      .S        0.17012  -0.53282   0.30761   0.62059
   37 F3      .X       -0.02016  -0.30167   0.03723  -0.14652
   38 F3      .Y       -0.22188   0.38557  -0.30167   0.25378
   39 F3      .Z       -0.00000  -0.00000  -0.00000   0.00000
   40 F3      .XX       0.01182  -0.03966   0.03232  -0.22044
   41 F3      .YY      -0.02197  -0.15115   0.07785  -0.30042
   42 F3      .ZZ       0.00384  -0.02597   0.01500  -0.21189
   43 F3      .XY      -0.00274   0.10062  -0.06437   0.07998
   44 F3      .XZ      -0.00000  -0.00000  -0.00000   0.00000
   45 F3      .YZ       0.00000   0.00000   0.00000  -0.00000
   46 F4      .S       -0.02534  -0.02287  -0.01320  -0.00352
   47 F4      .S        0.05868   0.14900   0.08603  -0.54819
   48 F4      .X       -0.03446   0.05333  -0.24652   0.03260
   49 F4      .Y        0.24472  -0.18494   0.05333   0.05647
   50 F4      .Z        0.00000   0.00000  -0.00000   0.00000
   51 F4      .S        0.17012   0.53282   0.30761   0.62059
   52 F4      .X       -0.02016   0.30167   0.03723  -0.14652
   53 F4      .Y        0.22188   0.38557   0.30167  -0.25378
   54 F4      .Z       -0.00000   0.00000  -0.00000   0.00000
   55 F4      .XX       0.01182   0.03966   0.03232  -0.22044
   56 F4      .YY      -0.02197   0.15115   0.07785  -0.30042
   57 F4      .ZZ       0.00384   0.02597   0.01500  -0.21189
   58 F4      .XY       0.00274   0.10062   0.06437  -0.07998
   59 F4      .XZ      -0.00000   0.00000  -0.00000   0.00000
   60 F4      .YZ      -0.00000   0.00000  -0.00000   0.00000
   61 F5      .S       -0.00000  -0.00000  -0.00000  -0.00045
   62 F5      .S        0.00000   0.00000  -0.00000  -0.46709
   63 F5      .X       -0.06682  -0.00000  -0.14900   0.00000
   64 F5      .Y        0.00000  -0.14900   0.00000  -0.00000
   65 F5      .Z       -0.00000   0.00000  -0.00000  -0.02305
   66 F5      .S       -0.00000   0.00000   0.00000   0.55877
   67 F5      .X       -0.07295  -0.00000  -0.12591   0.00000
   68 F5      .Y        0.00000  -0.12591   0.00000  -0.00000
   69 F5      .Z       -0.00000  -0.00000   0.00000   0.24945
   70 F5      .XX      -0.00323  -0.00000  -0.01756  -0.17070
   71 F5      .YY       0.00323   0.00000   0.01756  -0.17070
   72 F5      .ZZ       0.00000   0.00000  -0.00000  -0.29549
   73 F5      .XY      -0.00000   0.02028  -0.00000   0.00000
   74 F5      .XZ      -0.00760   0.00000   0.01589   0.00000
   75 F5      .YZ       0.00000   0.01589  -0.00000   0.00000
   76 F6      .S       -0.00000  -0.00000  -0.00000  -0.00045
   77 F6      .S        0.00000   0.00000  -0.00000  -0.46709
   78 F6      .X       -0.06682  -0.00000  -0.14900   0.00000
   79 F6      .Y        0.00000  -0.14900   0.00000  -0.00000
   80 F6      .Z        0.00000  -0.00000   0.00000   0.02305
   81 F6      .S       -0.00000   0.00000   0.00000   0.55877
   82 F6      .X       -0.07295  -0.00000  -0.12591   0.00000
   83 F6      .Y        0.00000  -0.12591   0.00000  -0.00000
   84 F6      .Z        0.00000   0.00000  -0.00000  -0.24945
   85 F6      .XX      -0.00323  -0.00000  -0.01756  -0.17070
   86 F6      .YY       0.00323   0.00000   0.01756  -0.17070
   87 F6      .ZZ       0.00000   0.00000  -0.00000  -0.29549
   88 F6      .XY      -0.00000   0.02028  -0.00000   0.00000
   89 F6      .XZ       0.00760  -0.00000  -0.01589  -0.00000
   90 F6      .YZ      -0.00000  -0.01589   0.00000  -0.00000
