 Entering Gaussian System

 Standard orientation:



 -------------------------------------------------------
     1   7    0     0.000000     0.000000     0.000000
     2   9    0     1.397987     0.000000     0.000000
     3   9    0    -0.698993     1.210692     0.000000
     4   9    0    -0.698993    -1.210692     0.000000
     5   9    0     0.000000     0.000000     1.563479
     6   9    0     0.000000     0.000000    -1.563479
 -------------------------------------------------------

 AO basis set (Overlap normalization):
 Atom  N1     Shell     1 S    6
   4.1735114600e+03   1.8347721600e-03
   6.2745791100e+02   1.3994627000e-02
   1.4290209300e+02   6.8586551810e-02
   4.0234329300e+01   2.3224087300e-01
   1.2820212900e+01   4.6906994810e-01
   4.3904370100e+00   3.6045519910e-01
 Atom  N1     Shell     2 SP   3
   1.1626361860e+01  -1.1496118170e-01   6.7579743880e-02
   2.7162798070e+00  -1.6911747860e-01   3.2390729590e-01
   7.7221839660e-01   1.1458519470e+00   7.4089513980e-01
 Atom  N1     Shell     3 SP   1
   2.1203149750e-01   1.0000000000e+00   1.0000000000e+00
 Atom  N1     Shell     4 D    1
   8.0000000000e-01   1.0000000000e+00
 Atom  F2     Shell     5 S    6
   7.0017130900e+03   1.8196169010e-03
   1.0513660900e+03   1.3916079610e-02
   2.3928569000e+02   6.8405324530e-02
   6.7397445300e+01   2.3318576010e-01
   2.1519957300e+01   4.7126743920e-01
   7.4031013000e+00   3.5661854620e-01
 Atom  F2     Shell     6 SP   3
   2.0847952800e+01  -1.0850697510e-01   7.1628724240e-02
   4.8083083400e+00  -1.4645165810e-01   3.4591210270e-01
   1.3440698600e+00   1.1286885810e+00   7.2246995640e-01
 Atom  F2     Shell     7 SP   1
   3.5815139300e-01   1.0000000000e+00   1.0000000000e+00
 Atom  F2     Shell     8 D    1
   8.0000000000e-01   1.0000000000e+00
 Atom  F3     Shell     9 S    6
   7.0017130900e+03   1.8196169010e-03
   1.0513660900e+03   1.3916079610e-02
   2.3928569000e+02   6.8405324530e-02
   6.7397445300e+01   2.3318576010e-01
   2.1519957300e+01   4.7126743920e-01
   7.4031013000e+00   3.5661854620e-01
 Atom  F3     Shell    10 SP   3
   2.0847952800e+01  -1.0850697510e-01   7.1628724240e-02
   4.8083083400e+00  -1.4645165810e-01   3.4591210270e-01
   1.3440698600e+00   1.1286885810e+00   7.2246995640e-01
 Atom  F3     Shell    11 SP   1
   3.5815139300e-01   1.0000000000e+00   1.0000000000e+00
 Atom  F3     Shell    12 D    1
   8.0000000000e-01   1.0000000000e+00
 Atom  F4     Shell    13 S    6
   7.0017130900e+03   1.8196169010e-03
   1.0513660900e+03   1.3916079610e-02
   2.3928569000e+02   6.8405324530e-02
   6.7397445300e+01   2.3318576010e-01
   2.1519957300e+01   4.7126743920e-01
   7.4031013000e+00   3.5661854620e-01
 Atom  F4     Shell    14 SP   3
   2.0847952800e+01  -1.0850697510e-01   7.1628724240e-02
   4.8083083400e+00  -1.4645165810e-01   3.4591210270e-01
   1.3440698600e+00   1.1286885810e+00   7.2246995640e-01
 Atom  F4     Shell    15 SP   1
   3.5815139300e-01   1.0000000000e+00   1.0000000000e+00
 Atom  F4     Shell    16 D    1
   8.0000000000e-01   1.0000000000e+00
 Atom  F5     Shell    17 S    6
   7.0017130900e+03   1.8196169010e-03
   1.0513660900e+03   1.3916079610e-02
   2.3928569000e+02   6.8405324530e-02
   6.7397445300e+01   2.3318576010e-01
   2.1519957300e+01   4.7126743920e-01
   7.4031013000e+00   3.5661854620e-01
 Atom  F5     Shell    18 SP   3
   2.0847952800e+01  -1.0850697510e-01   7.1628724240e-02
   4.8083083400e+00  -1.4645165810e-01   3.4591210270e-01
   1.3440698600e+00   1.1286885810e+00   7.2246995640e-01
 Atom  F5     Shell    19 SP   1
   3.5815139300e-01   1.0000000000e+00   1.0000000000e+00
 Atom  F5     Shell    20 D    1
   8.0000000000e-01   1.0000000000e+00
 Atom  F6     Shell    21 S    6
   7.0017130900e+03   1.8196169010e-03
   1.0513660900e+03   1.3916079610e-02
   2.3928569000e+02   6.8405324530e-02
   6.7397445300e+01   2.3318576010e-01
   2.1519957300e+01   4.7126743920e-01
   7.4031013000e+00   3.5661854620e-01
 Atom  F6     Shell    22 SP   3
   2.0847952800e+01  -1.0850697510e-01   7.1628724240e-02
   4.8083083400e+00  -1.4645165810e-01   3.4591210270e-01
   1.3440698600e+00   1.1286885810e+00   7.2246995640e-01
 Atom  F6     Shell    23 SP   1
   3.5815139300e-01   1.0000000000e+00   1.0000000000e+00
 Atom  F6     Shell    24 D    1
   8.0000000000e-01   1.0000000000e+00

  Molecular Orbital Coefficients:
                           1         2         3         4         5
                           O         O         O         O         O    
     Eigenvalues --   -34.74116 -34.74114 -34.74114 -33.89528 -33.89528
    1 N1      .S        0.01777   0.01777   0.01777   0.01397   0.01397
    2 N1      .S       -0.01342  -0.01342  -0.01342  -0.01209  -0.01209
    3 N1      .X       -0.07357   0.03678   0.03678  -0.00000  -0.00000
    4 N1      .Y       -0.00000   0.06371  -0.06371   0.00000   0.00000
    5 N1      .Z       -0.00000  -0.00000  -0.00000  -0.05904   0.05904
    6 N1      .S       -0.12936  -0.12936  -0.12936  -0.08723  -0.08723
    7 N1      .X       -0.19033   0.09517   0.09517  -0.00000  -0.00000
    8 N1      .Y        0.00000   0.16483  -0.16483   0.00000   0.00000
    9 N1      .Z        0.00000   0.00000   0.00000  -0.17998   0.17998
   10 N1      .XX      -0.00321  -0.00329  -0.00329  -0.00225  -0.00225
   11 N1      .YY      -0.00332  -0.00324  -0.00324  -0.00225  -0.00225
   12 N1      .ZZ      -0.00318  -0.00318  -0.00318  -0.00315  -0.00315
   13 N1      .XY      -0.00000   0.00005  -0.00005  -0.00000  -0.00000
   14 N1      .XZ       0.00000  -0.00000  -0.00000   0.00000  -0.00000
   15 N1      .YZ       0.00000   0.00000  -0.00000  -0.00000   0.00000
   16 F2      .S       -0.14071   0.00080   0.00080  -0.00128  -0.00128
   17 F2      .S        0.52042  -0.01331  -0.01331   0.00179   0.00179
   18 F2      .X        0.20446   0.00389   0.00389  -0.00356  -0.00356
   19 F2      .Y        0.00000  -0.01597   0.01597   0.00000   0.00000
   20 F2      .Z        0.00000   0.00000  -0.00000   0.00716  -0.00716
   21 F2      .S        0.63924   0.00221   0.00221   0.01716   0.01716
   22 F2      .X        0.09878  -0.00133  -0.00133  -0.00688  -0.00688
   23 F2      .Y       -0.00000  -0.01991   0.01991  -0.00000   0.00000
   24 F2      .Z       -0.00000  -0.00000  -0.00000   0.00913  -0.00913
   25 F2      .XX      -0.00396  -0.00254  -0.00254  -0.00206  -0.00206
   26 F2      .YY      -0.00444  -0.00260  -0.00260  -0.00211  -0.00211
   27 F2      .ZZ      -0.00621  -0.00258  -0.00258  -0.00225  -0.00225
   28 F2      .XY       0.00000  -0.00002   0.00002   0.00000  -0.00000
   29 F2      .XZ       0.00000   0.00000  -0.00000  -0.00010   0.00010
   30 F2      .YZ      -0.00000  -0.00000  -0.00000  -0.00000  -0.00000
   31 F3      .S        0.00080   0.00080  -0.14071  -0.00128  -0.00128
   32 F3      .S       -0.01331  -0.01331   0.52042   0.00179   0.00179
   33 F3      .X        0.01188  -0.01577  -0.10223   0.00178   0.00178
   34 F3      .Y        0.01135  -0.00461   0.17707  -0.00309  -0.00309
   35 F3      .Z        0.00000   0.00000   0.00000   0.00716  -0.00716
   36 F3      .S        0.00221   0.00221   0.63924   0.01716   0.01716
   37 F3      .X        0.01790  -0.01657  -0.04939   0.00344   0.00344
   38 F3      .Y        0.00880  -0.01110   0.08555  -0.00595  -0.00595
   39 F3      .Z       -0.00000  -0.00000  -0.00000   0.00913  -0.00913
   40 F3      .XX      -0.00260  -0.00257  -0.00432  -0.00210  -0.00210
   41 F3      .YY      -0.00255  -0.00257  -0.00408  -0.00207  -0.00207
   42 F3      .ZZ      -0.00258  -0.00258  -0.00621  -0.00225  -0.00225
   43 F3      .XY      -0.00002  -0.00003  -0.00024  -0.00003  -0.00003
   44 F3      .XZ      -0.00000  -0.00000  -0.00000   0.00005  -0.00005
   45 F3      .YZ       0.00000   0.00000   0.00000  -0.00009   0.00009
   46 F4      .S        0.00080  -0.14071   0.00080  -0.00128  -0.00128
   47 F4      .S       -0.01331   0.52042  -0.01331   0.00179   0.00179
   48 F4      .X        0.01188  -0.10223  -0.01577   0.00178   0.00178
   49 F4      .Y       -0.01135  -0.17707   0.00461   0.00309   0.00309
   50 F4      .Z       -0.00000   0.00000   0.00000   0.00716  -0.00716
   51 F4      .S        0.00221   0.63924   0.00221   0.01716   0.01716
   52 F4      .X        0.01790  -0.04939  -0.01657   0.00344   0.00344
   53 F4      .Y       -0.00880  -0.08555   0.01110   0.00595   0.00595
   54 F4      .Z       -0.00000  -0.00000  -0.00000   0.00913  -0.00913
   55 F4      .XX      -0.00260  -0.00432  -0.00257  -0.00210  -0.00210
   56 F4      .YY      -0.00255  -0.00408  -0.00257  -0.00207  -0.00207
   57 F4      .ZZ      -0.00258  -0.00621  -0.00258  -0.00225  -0.00225
   58 F4      .XY       0.00002   0.00024   0.00003   0.00003   0.00003
   59 F4      .XZ      -0.00000  -0.00000   0.00000   0.00005  -0.00005
   60 F4      .YZ      -0.00000  -0.00000  -0.00000   0.00009  -0.00009
   61 F5      .S       -0.00125  -0.00125  -0.00125  -0.14443   0.00626
   62 F5      .S        0.00271   0.00271   0.00271   0.51381  -0.01280
   63 F5      .X        0.00657  -0.00328  -0.00328   0.00000   0.00000
   64 F5      .Y       -0.00000  -0.00569   0.00569  -0.00000   0.00000
   65 F5      .Z       -0.00411  -0.00411  -0.00411   0.15792   0.01687
   66 F5      .S        0.01527   0.01527   0.01527   0.63411  -0.05758
   67 F5      .X        0.00597  -0.00299  -0.00299   0.00000  -0.00000
   68 F5      .Y       -0.00000  -0.00517   0.00517  -0.00000   0.00000
   69 F5      .Z       -0.00666  -0.00666  -0.00666   0.08118   0.02348
   70 F5      .XX      -0.00169  -0.00164  -0.00164  -0.00679   0.00577
   71 F5      .YY      -0.00163  -0.00167  -0.00167  -0.00679   0.00577
   72 F5      .ZZ      -0.00163  -0.00163  -0.00163  -0.00242   0.00588
   73 F5      .XY      -0.00000  -0.00003   0.00003  -0.00000  -0.00000
   74 F5      .XZ       0.00007  -0.00003  -0.00003   0.00000   0.00000
   75 F5      .YZ       0.00000  -0.00006   0.00006   0.00000   0.00000
   76 F6      .S       -0.00125  -0.00125  -0.00125   0.00626  -0.14443
   77 F6      .S        0.00271   0.00271   0.00271  -0.01280   0.51381
   78 F6      .X        0.00657  -0.00328  -0.00328   0.00000   0.00000
   79 F6      .Y       -0.00000  -0.00569   0.00569  -0.00000  -0.00000
   80 F6      .Z        0.00411   0.00411   0.00411  -0.01687  -0.15792
   81 F6      .S        0.01527   0.01527   0.01527  -0.05758   0.63411
   82 F6      .X        0.00597  -0.00299  -0.00299  -0.00000   0.00000
   83 F6      .Y       -0.00000  -0.00517   0.00517  -0.00000   0.00000
   84 F6      .Z        0.00666   0.00666   0.00666  -0.02348  -0.08118
   85 F6      .XX      -0.00169  -0.00164  -0.00164   0.00577  -0.00679
   86 F6      .YY      -0.00163  -0.00167  -0.00167   0.00577  -0.00679
   87 F6      .ZZ      -0.00163  -0.00163  -0.00163   0.00588  -0.00242
   88 F6      .XY      -0.00000  -0.00003   0.00003  -0.00000  -0.00000
   89 F6      .XZ      -0.00007   0.00003   0.00003  -0.00000  -0.00000
   90 F6      .YZ      -0.00000   0.00006  -0.00006  -0.00000   0.00000
                           6         7         8         9        10
                           O         O         O         O         O    
     Eigenvalues --   -23.12323 -23.12316 -23.12316 -13.16170 -13.16167
    1 N1      .S       -0.03839  -0.03839  -0.03839  -0.00000  -0.00000
    2 N1      .S        0.27153   0.27153   0.27153  -0.00000   0.00000
    3 N1      .X        0.36034  -0.18017  -0.18017  -0.00000  -0.04772
    4 N1      .Y       -0.00000  -0.31207   0.31207  -0.05511  -0.02755
    5 N1      .Z        0.00000   0.00000   0.00000  -0.00000   0.00000
    6 N1      .S       -0.00654  -0.00654  -0.00654   0.00000  -0.00000
    7 N1      .X        0.08666  -0.04332  -0.04332   0.00000  -0.05292
    8 N1      .Y       -0.00000  -0.07505   0.07505  -0.06111  -0.03055
    9 N1      .Z        0.00000   0.00000   0.00000   0.00000  -0.00000
   10 N1      .XX       0.18878   0.15836   0.15836  -0.00000   0.00133
   11 N1      .YY       0.14822   0.17864   0.17864  -0.00000  -0.00133
   12 N1      .ZZ      -0.29945  -0.29945  -0.29945  -0.00000   0.00000
   13 N1      .XY       0.00000   0.02028  -0.02028  -0.00177  -0.00088
   14 N1      .XZ       0.00000   0.00000   0.00000  -0.00000  -0.00000
   15 N1      .YZ      -0.00000   0.00000  -0.00000   0.00000   0.00000
   16 F2      .S       -0.01549   0.01125   0.01125   0.00000  -0.00117
   17 F2      .S        0.29731   0.09171   0.09171   0.00000   0.01994
   18 F2      .X       -0.49014  -0.01632  -0.01632  -0.00000  -0.00762
   19 F2      .Y        0.00000   0.00532  -0.00532   0.69755  -0.00011
   20 F2      .Z       -0.00000  -0.00000  -0.00000  -0.00000   0.00000
   21 F2      .S       -0.22444  -0.23082  -0.23082  -0.00000  -0.00961
   22 F2      .X       -0.16985   0.10618   0.10618   0.00000  -0.00391
   23 F2      .Y        0.00000   0.00404  -0.00404   0.46549  -0.00077
   24 F2      .Z       -0.00000  -0.00000  -0.00000  -0.00000   0.00000
   25 F2      .XX       0.06246   0.00270   0.00270   0.00000   0.00614
   26 F2      .YY       0.07543   0.06143   0.06143   0.00000   0.00536
   27 F2      .ZZ       0.07027   0.05773   0.05773   0.00000   0.00491
   28 F2      .XY       0.00000   0.00258  -0.00258  -0.02447  -0.00151
   29 F2      .XZ       0.00000   0.00000   0.00000   0.00000  -0.00000
   30 F2      .YZ      -0.00000  -0.00000   0.00000   0.00000  -0.00000
   31 F3      .S        0.01125   0.01125  -0.01549  -0.00117   0.00000
   32 F3      .S        0.09171   0.09171   0.29731   0.01995  -0.00000
   33 F3      .X        0.00355   0.01277   0.24507   0.00371   0.60409
   34 F3      .Y       -0.01680  -0.01148  -0.42448  -0.00666   0.34877
   35 F3      .Z       -0.00000  -0.00000  -0.00000   0.00000   0.00000
   36 F3      .S       -0.23082  -0.23082  -0.22444  -0.00961   0.00000
   37 F3      .X       -0.05658  -0.04959   0.08493   0.00129   0.40312
   38 F3      .Y        0.08993   0.09397  -0.14710  -0.00377   0.23274
   39 F3      .Z       -0.00000  -0.00000  -0.00000  -0.00000   0.00000
   40 F3      .XX       0.04869   0.04481   0.07219   0.00669   0.01835
   41 F3      .YY       0.01545   0.01932   0.06570   0.00481  -0.01835
   42 F3      .ZZ       0.05773   0.05773   0.07027   0.00491  -0.00000
   43 F3      .XY       0.02807   0.03066   0.00648  -0.00115  -0.01223
   44 F3      .XZ      -0.00000  -0.00000  -0.00000  -0.00000   0.00000
   45 F3      .YZ       0.00000   0.00000   0.00000   0.00000  -0.00000
   46 F4      .S        0.01125  -0.01549   0.01125   0.00117   0.00117
   47 F4      .S        0.09171   0.29731   0.09171  -0.01995  -0.01994
   48 F4      .X        0.00355   0.24507   0.01277  -0.00371  -0.00391
   49 F4      .Y        0.01680   0.42448   0.01148  -0.00666  -0.00655
   50 F4      .Z       -0.00000  -0.00000  -0.00000  -0.00000  -0.00000
   51 F4      .S       -0.23082  -0.22444  -0.23082   0.00961   0.00961
   52 F4      .X       -0.05658   0.08493  -0.04959  -0.00129  -0.00262
   53 F4      .Y       -0.08993   0.14710  -0.09397  -0.00377  -0.00300
   54 F4      .Z       -0.00000  -0.00000  -0.00000  -0.00000   0.00000
   55 F4      .XX       0.04869   0.07219   0.04481  -0.00669  -0.00442
   56 F4      .YY       0.01545   0.06570   0.01932  -0.00481  -0.00708
   57 F4      .ZZ       0.05773   0.07027   0.05773  -0.00491  -0.00491
   58 F4      .XY      -0.02807  -0.00648  -0.03066  -0.00115   0.00037
   59 F4      .XZ      -0.00000  -0.00000  -0.00000  -0.00000   0.00000
   60 F4      .YZ      -0.00000  -0.00000  -0.00000  -0.00000   0.00000
   61 F5      .S       -0.01478  -0.01478  -0.01478   0.00000  -0.00000
   62 F5      .S       -0.11515  -0.11515  -0.11515   0.00000  -0.00000
   63 F5      .X       -0.00896   0.00448   0.00448   0.00000   0.00080
   64 F5      .Y        0.00000   0.00776  -0.00776   0.00093   0.00046
   65 F5      .Z        0.03607   0.03607   0.03607  -0.00000  -0.00000
   66 F5      .S        0.29697   0.29697   0.29697  -0.00000   0.00000
   67 F5      .X       -0.00434   0.00217   0.00217  -0.00000   0.00026
   68 F5      .Y        0.00000   0.00376  -0.00376   0.00030   0.00015
   69 F5      .Z       -0.13128  -0.13129  -0.13129   0.00000  -0.00000
   70 F5      .XX      -0.07964  -0.07933  -0.07933   0.00000  -0.00036
   71 F5      .YY      -0.07923  -0.07954  -0.07954   0.00000   0.00036
   72 F5      .ZZ      -0.00252  -0.00252  -0.00252   0.00000  -0.00000
   73 F5      .XY       0.00000  -0.00020   0.00020   0.00049   0.00024
   74 F5      .XZ       0.00049  -0.00024  -0.00024   0.00000  -0.00087
   75 F5      .YZ      -0.00000  -0.00042   0.00042  -0.00101  -0.00050
   76 F6      .S       -0.01478  -0.01478  -0.01478  -0.00000  -0.00000
   77 F6      .S       -0.11515  -0.11515  -0.11515  -0.00000  -0.00000
   78 F6      .X       -0.00896   0.00448   0.00448  -0.00000   0.00080
   79 F6      .Y        0.00000   0.00776  -0.00776   0.00093   0.00046
   80 F6      .Z       -0.03607  -0.03607  -0.03607   0.00000   0.00000
   81 F6      .S        0.29697   0.29697   0.29697   0.00000   0.00000
   82 F6      .X       -0.00434   0.00217   0.00217  -0.00000   0.00026
   83 F6      .Y        0.00000   0.00376  -0.00376   0.00030   0.00015
   84 F6      .Z        0.13128   0.13129   0.13129   0.00000   0.00000
   85 F6      .XX      -0.07964  -0.07933  -0.07933  -0.00000  -0.00036
   86 F6      .YY      -0.07923  -0.07954  -0.07954  -0.00000   0.00036
   87 F6      .ZZ      -0.00252  -0.00252  -0.00252  -0.00000  -0.00000
   88 F6      .XY       0.00000  -0.00020   0.00020   0.00049   0.00024
   89 F6      .XZ      -0.00049   0.00024   0.00024  -0.00000   0.00087
   90 F6      .YZ       0.00000   0.00042  -0.00042   0.00101   0.00050
                          11        12        13        14        15
                           O         O         O         O         O    
     Eigenvalues --   -13.16167 -13.12298 -13.12294 -13.12294 -12.24034
    1 N1      .S       -0.00000  -0.00000  -0.00000  -0.00000  -0.03064
    2 N1      .S        0.00000  -0.00000  -0.00000  -0.00000  -0.01612
    3 N1      .X       -0.04772   0.00000  -0.00000  -0.00000   0.00000
    4 N1      .Y        0.02755  -0.00000  -0.00000  -0.00000   0.00000
    5 N1      .Z       -0.00000  -0.04852  -0.04852  -0.04852  -0.24470
    6 N1      .S       -0.00000   0.00000   0.00000   0.00000   0.00233
    7 N1      .X       -0.05292  -0.00000  -0.00000  -0.00000  -0.00001
    8 N1      .Y        0.03055   0.00000   0.00000   0.00000   0.00000
    9 N1      .Z        0.00000  -0.07014  -0.07014  -0.07014  -0.01736
   10 N1      .XX       0.00133  -0.00000  -0.00000  -0.00000  -0.26189
   11 N1      .YY      -0.00133  -0.00000  -0.00000  -0.00000  -0.26188
   12 N1      .ZZ       0.00000  -0.00000  -0.00000  -0.00000   0.43127
   13 N1      .XY       0.00088  -0.00000  -0.00000  -0.00000  -0.00000
   14 N1      .XZ       0.00000  -0.00359   0.00180   0.00180   0.00000
   15 N1      .YZ      -0.00000  -0.00000  -0.00311   0.00311  -0.00000
   16 F2      .S       -0.00117   0.00000   0.00000   0.00000  -0.01733
   17 F2      .S        0.01994   0.00000   0.00000   0.00000  -0.18749
   18 F2      .X       -0.00762  -0.00000  -0.00000  -0.00000   0.05447
   19 F2      .Y        0.00011   0.00000  -0.00000  -0.00000  -0.00000
   20 F2      .Z       -0.00000   0.69542   0.00700   0.00700   0.01490
   21 F2      .S       -0.00961  -0.00000  -0.00000  -0.00000   0.44646
   22 F2      .X       -0.00391   0.00000   0.00000   0.00000  -0.18092
   23 F2      .Y        0.00077  -0.00000  -0.00000  -0.00000  -0.00000
   24 F2      .Z        0.00000   0.47140   0.00441   0.00441   0.00298
   25 F2      .XX       0.00614   0.00000   0.00000   0.00000  -0.01138
   26 F2      .YY       0.00536   0.00000   0.00000   0.00000  -0.11538
   27 F2      .ZZ       0.00491   0.00000   0.00000   0.00000  -0.11157
   28 F2      .XY       0.00151   0.00000   0.00000   0.00000  -0.00000
   29 F2      .XZ       0.00000  -0.02516  -0.00144  -0.00144   0.00186
   30 F2      .YZ       0.00000   0.00000   0.00016  -0.00016  -0.00000
   31 F3      .S        0.00117   0.00000   0.00000   0.00000  -0.01733
   32 F3      .S       -0.01994   0.00000   0.00000   0.00000  -0.18749
   33 F3      .X       -0.00391  -0.00000   0.00000   0.00000  -0.02723
   34 F3      .Y        0.00655  -0.00000  -0.00000  -0.00000   0.04717
   35 F3      .Z       -0.00000   0.00700   0.69542   0.00700   0.01490
   36 F3      .S        0.00961  -0.00000  -0.00000  -0.00000   0.44645
   37 F3      .X       -0.00262  -0.00000  -0.00000  -0.00000   0.09046
   38 F3      .Y        0.00300   0.00000   0.00000   0.00000  -0.15668
   39 F3      .Z       -0.00000   0.00441   0.47140   0.00441   0.00298
   40 F3      .XX      -0.00442   0.00000   0.00000   0.00000  -0.08938
   41 F3      .YY      -0.00708   0.00000   0.00000   0.00000  -0.03738
   42 F3      .ZZ      -0.00491   0.00000   0.00000   0.00000  -0.11157
   43 F3      .XY      -0.00037   0.00000   0.00000   0.00000  -0.05200
   44 F3      .XZ      -0.00000   0.00086   0.01258   0.00058  -0.00093
   45 F3      .YZ      -0.00000  -0.00117  -0.02179  -0.00132   0.00161
   46 F4      .S        0.00000   0.00000   0.00000   0.00000  -0.01733
   47 F4      .S       -0.00000   0.00000   0.00000   0.00000  -0.18749
   48 F4      .X        0.60409  -0.00000   0.00000   0.00000  -0.02723
   49 F4      .Y       -0.34877   0.00000   0.00000   0.00000  -0.04717
   50 F4      .Z        0.00000   0.00700   0.00700   0.69542   0.01490
   51 F4      .S        0.00000  -0.00000  -0.00000  -0.00000   0.44645
   52 F4      .X        0.40312  -0.00000  -0.00000  -0.00000   0.09046
   53 F4      .Y       -0.23274  -0.00000  -0.00000  -0.00000   0.15668
   54 F4      .Z       -0.00000   0.00441   0.00441   0.47140   0.00298
   55 F4      .XX       0.01835   0.00000   0.00000   0.00000  -0.08938
   56 F4      .YY      -0.01835   0.00000   0.00000   0.00000  -0.03738
   57 F4      .ZZ      -0.00000   0.00000   0.00000   0.00000  -0.11157
   58 F4      .XY       0.01223  -0.00000  -0.00000  -0.00000   0.05200
   59 F4      .XZ      -0.00000   0.00086   0.00058   0.01258  -0.00093
   60 F4      .YZ       0.00000   0.00117   0.00132   0.02179  -0.00161
   61 F5      .S       -0.00000   0.00089   0.00089   0.00089   0.02533
   62 F5      .S       -0.00000  -0.00001  -0.00001  -0.00001   0.13923
   63 F5      .X        0.00080  -0.01882   0.00941   0.00941   0.00000
   64 F5      .Y       -0.00046   0.00000  -0.01629   0.01629  -0.00000
   65 F5      .Z       -0.00000   0.00268   0.00268   0.00268  -0.02823
   66 F5      .S        0.00000   0.00798   0.00797   0.00797  -0.41946
   67 F5      .X        0.00026  -0.01159   0.00580   0.00580   0.00000
   68 F5      .Y       -0.00015  -0.00000  -0.01004   0.01004  -0.00000
   69 F5      .Z       -0.00000  -0.00200  -0.00200  -0.00200   0.19877
   70 F5      .XX      -0.00036  -0.00074  -0.00030  -0.00030   0.11033
   71 F5      .YY       0.00036  -0.00015  -0.00059  -0.00059   0.11033
   72 F5      .ZZ      -0.00000   0.00142   0.00142   0.00142   0.00305
   73 F5      .XY      -0.00024  -0.00000   0.00029  -0.00029  -0.00000
   74 F5      .XZ      -0.00087   0.00028  -0.00014  -0.00014  -0.00000
   75 F5      .YZ       0.00050   0.00000   0.00024  -0.00024   0.00000
   76 F6      .S       -0.00000  -0.00089  -0.00089  -0.00089  -0.00476
   77 F6      .S       -0.00000   0.00001   0.00001   0.00001   0.31258
   78 F6      .X        0.00080   0.01882  -0.00941  -0.00941   0.00000
   79 F6      .Y       -0.00046   0.00000   0.01629  -0.01629  -0.00000
   80 F6      .Z        0.00000   0.00268   0.00268   0.00268   0.55963
   81 F6      .S        0.00000  -0.00798  -0.00797  -0.00797  -0.33795
   82 F6      .X        0.00026   0.01159  -0.00580  -0.00580   0.00000
   83 F6      .Y       -0.00015  -0.00000   0.01004  -0.01004  -0.00000
   84 F6      .Z        0.00000  -0.00200  -0.00200  -0.00200   0.17733
   85 F6      .XX      -0.00036   0.00074   0.00030   0.00030   0.10878
   86 F6      .YY       0.00036   0.00015   0.00059   0.00059   0.10878
   87 F6      .ZZ      -0.00000  -0.00142  -0.00142  -0.00142   0.05967
   88 F6      .XY      -0.00024   0.00000  -0.00029   0.00029  -0.00000
   89 F6      .XZ       0.00087   0.00028  -0.00014  -0.00014  -0.00000
   90 F6      .YZ      -0.00050  -0.00000   0.00024  -0.00024  -0.00000
                          16        17        18        19        20
                           O         O         O         O         O    
     Eigenvalues --   -12.24034 -10.94290 -10.94290 -10.94290 -10.94290
    1 N1      .S       -0.03064  -0.00000  -0.00000   0.00000  -0.00000
    2 N1      .S       -0.01612  -0.00000  -0.00000   0.00000  -0.00000
    3 N1      .X        0.00000  -0.03491  -0.03491   0.00000  -0.00000
    4 N1      .Y        0.00000   0.00000   0.00000  -0.03491  -0.03491
    5 N1      .Z        0.24470   0.00000  -0.00000  -0.00000   0.00000
    6 N1      .S        0.00233   0.00000   0.00000  -0.00000   0.00000
    7 N1      .X       -0.00001  -0.05284  -0.05284  -0.00000   0.00000
    8 N1      .Y        0.00000  -0.00000   0.00000  -0.05284  -0.05284
    9 N1      .Z        0.01736   0.00000  -0.00000   0.00000  -0.00000
   10 N1      .XX      -0.26189  -0.00056  -0.00056   0.00000   0.00000
   11 N1      .YY      -0.26188   0.00056   0.00056   0.00000  -0.00000
   12 N1      .ZZ       0.43127  -0.00000  -0.00000   0.00000  -0.00000
   13 N1      .XY      -0.00000   0.00000  -0.00000   0.00065   0.00065
   14 N1      .XZ      -0.00000  -0.00157   0.00157  -0.00000  -0.00000
   15 N1      .YZ      -0.00000  -0.00000   0.00000  -0.00157   0.00157
   16 F2      .S       -0.01733   0.00101   0.00101  -0.00000   0.00000
   17 F2      .S       -0.18749   0.00299   0.00299  -0.00000   0.00000
   18 F2      .X        0.05447   0.00010   0.00010   0.00000  -0.00000
   19 F2      .Y       -0.00000  -0.00000  -0.00000   0.00200   0.00200
   20 F2      .Z       -0.01490  -0.02008   0.02008   0.00000  -0.00000
   21 F2      .S        0.44646   0.00308   0.00308   0.00000  -0.00000
   22 F2      .X       -0.18092  -0.00044  -0.00044  -0.00000   0.00000
   23 F2      .Y       -0.00000   0.00000   0.00000   0.00079   0.00079
   24 F2      .Z       -0.00298  -0.01186   0.01186  -0.00000   0.00000
   25 F2      .XX      -0.01138   0.00124   0.00124  -0.00000   0.00000
   26 F2      .YY      -0.11538   0.00125   0.00125  -0.00000   0.00000
   27 F2      .ZZ      -0.11157   0.00055   0.00055  -0.00000   0.00000
   28 F2      .XY      -0.00000  -0.00000  -0.00000  -0.00085  -0.00085
   29 F2      .XZ      -0.00186   0.00021  -0.00021   0.00000   0.00000
   30 F2      .YZ      -0.00000   0.00000   0.00000  -0.00005   0.00005
   31 F3      .S       -0.01733  -0.00050  -0.00050   0.00087   0.00087
   32 F3      .S       -0.18749  -0.00149  -0.00149   0.00259   0.00259
   33 F3      .X       -0.02723   0.00153   0.00153   0.00082   0.00082
   34 F3      .Y        0.04717   0.00082   0.00082   0.00058   0.00058
   35 F3      .Z       -0.01490   0.01004  -0.01004  -0.01739   0.01739
   36 F3      .S        0.44645  -0.00154  -0.00154   0.00266   0.00266
   37 F3      .X        0.09046   0.00048   0.00048   0.00054   0.00054
   38 F3      .Y       -0.15668   0.00054   0.00054  -0.00014  -0.00014
   39 F3      .Z       -0.00298   0.00593  -0.00593  -0.01027   0.01027
   40 F3      .XX      -0.08938  -0.00007  -0.00007   0.00140   0.00140
   41 F3      .YY      -0.03738  -0.00118  -0.00118   0.00076   0.00076
   42 F3      .ZZ      -0.11157  -0.00027  -0.00027   0.00047   0.00047
   43 F3      .XY      -0.05200  -0.00037  -0.00037  -0.00021  -0.00021
   44 F3      .XZ       0.00093   0.00001  -0.00001  -0.00011   0.00011
   45 F3      .YZ      -0.00161  -0.00011   0.00011   0.00014  -0.00014
   46 F4      .S       -0.01733  -0.00050  -0.00050  -0.00087  -0.00087
   47 F4      .S       -0.18749  -0.00149  -0.00149  -0.00259  -0.00259
   48 F4      .X       -0.02723   0.00153   0.00153  -0.00082  -0.00082
   49 F4      .Y       -0.04717  -0.00082  -0.00082   0.00058   0.00058
   50 F4      .Z       -0.01490   0.01004  -0.01004   0.01739  -0.01739
   51 F4      .S        0.44645  -0.00154  -0.00154  -0.00266  -0.00266
   52 F4      .X        0.09046   0.00048   0.00048  -0.00054  -0.00054
   53 F4      .Y        0.15668  -0.00054  -0.00054  -0.00014  -0.00014
   54 F4      .Z       -0.00298   0.00593  -0.00593   0.01027  -0.01027
   55 F4      .XX      -0.08938  -0.00007  -0.00007  -0.00140  -0.00140
   56 F4      .YY      -0.03738  -0.00118  -0.00118  -0.00076  -0.00076
   57 F4      .ZZ      -0.11157  -0.00027  -0.00027  -0.00047  -0.00047
   58 F4      .XY       0.05200   0.00037   0.00037  -0.00021  -0.00021
   59 F4      .XZ       0.00093   0.00001  -0.00001   0.00011  -0.00011
   60 F4      .YZ       0.00161   0.00011  -0.00011   0.00014  -0.00014
   61 F5      .S       -0.00476   0.00000  -0.00000  -0.00000  -0.00000
   62 F5      .S        0.31258  -0.00000  -0.00000  -0.00000  -0.00000
   63 F5      .X        0.00000   0.67713   0.00435   0.00000   0.00000
   64 F5      .Y       -0.00000   0.00000  -0.00000   0.67713   0.00435
   65 F5      .Z       -0.55963  -0.00000  -0.00000  -0.00000   0.00000
   66 F5      .S       -0.33795  -0.00000   0.00000   0.00000   0.00000
   67 F5      .X        0.00000   0.48367   0.00293   0.00000  -0.00000
   68 F5      .Y       -0.00000   0.00000   0.00000   0.48367   0.00293
   69 F5      .Z       -0.17733   0.00000  -0.00000  -0.00000   0.00000
   70 F5      .XX       0.10878  -0.00079  -0.00012  -0.00000   0.00000
   71 F5      .YY       0.10878   0.00079   0.00012   0.00000  -0.00000
   72 F5      .ZZ       0.05967  -0.00000  -0.00000   0.00000  -0.00000
   73 F5      .XY      -0.00000   0.00000  -0.00000   0.00091   0.00014
   74 F5      .XZ       0.00000  -0.01841  -0.00035  -0.00000   0.00000
   75 F5      .YZ       0.00000  -0.00000  -0.00000  -0.01841  -0.00035
   76 F6      .S        0.02533  -0.00000   0.00000  -0.00000   0.00000
   77 F6      .S        0.13923  -0.00000  -0.00000  -0.00000   0.00000
   78 F6      .X        0.00000   0.00435   0.67713   0.00000   0.00000
   79 F6      .Y       -0.00000  -0.00000   0.00000   0.00435   0.67713
   80 F6      .Z        0.02823   0.00000   0.00000   0.00000   0.00000
   81 F6      .S       -0.41946   0.00000  -0.00000   0.00000  -0.00000
   82 F6      .X        0.00000   0.00293   0.48367   0.00000  -0.00000
   83 F6      .Y       -0.00000   0.00000  -0.00000   0.00293   0.48367
   84 F6      .Z       -0.19877   0.00000  -0.00000   0.00000  -0.00000
   85 F6      .XX       0.11033  -0.00012  -0.00079  -0.00000   0.00000
   86 F6      .YY       0.11033   0.00012   0.00079  -0.00000   0.00000
   87 F6      .ZZ       0.00305  -0.00000  -0.00000   0.00000   0.00000
   88 F6      .XY      -0.00000   0.00000  -0.00000   0.00014   0.00091
   89 F6      .XZ       0.00000   0.00035   0.01841   0.00000  -0.00000
   90 F6      .YZ      -0.00000   0.00000  -0.00000   0.00035   0.01841
                          21        22        23        24        25
                           V         V         V         V         V    
     Eigenvalues --     3.88275   3.88277   3.88277  13.79104  13.79104
    1 N1      .S       -0.08043  -0.08043  -0.08043  -0.08187  -0.08187
    2 N1      .S        0.49675   0.49675   0.49675   0.08194   0.08194
    3 N1      .X        0.63532  -0.31766  -0.31766   0.00000   0.00000
    4 N1      .Y       -0.00000  -0.55020   0.55020   0.00000   0.00000
    5 N1      .Z        0.00000   0.00000   0.00000  -0.56160   0.56160
    6 N1      .S        0.12787   0.12786   0.12786   0.18205   0.18205
    7 N1      .X        0.33910  -0.16954  -0.16954  -0.00001  -0.00001
    8 N1      .Y       -0.00000  -0.29366   0.29366   0.00000   0.00000
    9 N1      .Z        0.00000   0.00000   0.00000  -0.21308   0.21308
   10 N1      .XX       0.28559   0.22067   0.22067  -0.40139  -0.40139
   11 N1      .YY       0.19903   0.26395   0.26395  -0.40139  -0.40139
   12 N1      .ZZ      -0.37427  -0.37427  -0.37427   0.70311   0.70311
   13 N1      .XY       0.00000   0.04328  -0.04328  -0.00000  -0.00000
   14 N1      .XZ       0.00000   0.00000   0.00000   0.00000  -0.00000
   15 N1      .YZ       0.00000   0.00000   0.00000  -0.00000  -0.00000
   16 F2      .S        0.07039   0.01277   0.01277  -0.02705  -0.02705
   17 F2      .S       -0.14816   0.14096   0.14096  -0.28066  -0.28066
   18 F2      .X        0.51278  -0.03009  -0.03009   0.07746   0.07746
   19 F2      .Y        0.00000   0.03366  -0.03366  -0.00000  -0.00000
   20 F2      .Z       -0.00000  -0.00000  -0.00000   0.02198  -0.02198
   21 F2      .S       -0.40389  -0.30227  -0.30227   0.66048   0.66048
   22 F2      .X        0.55090   0.13865   0.13865  -0.27347  -0.27347
   23 F2      .Y        0.00000   0.00835  -0.00835  -0.00000  -0.00000
   24 F2      .Z       -0.00000  -0.00000  -0.00000   0.00297  -0.00297
   25 F2      .XX      -0.08625   0.00105   0.00105  -0.01598  -0.01598
   26 F2      .YY       0.06514   0.08414   0.08414  -0.17445  -0.17445
   27 F2      .ZZ       0.06216   0.08062   0.08062  -0.16511  -0.16511
   28 F2      .XY       0.00000   0.00125  -0.00125  -0.00000  -0.00000
   29 F2      .XZ       0.00000   0.00000   0.00000  -0.00120   0.00120
   30 F2      .YZ       0.00000  -0.00000   0.00000   0.00000  -0.00000
   31 F3      .S        0.01277   0.01277   0.07039  -0.02705  -0.02705
   32 F3      .S        0.14096   0.14096  -0.14816  -0.28066  -0.28066
   33 F3      .X       -0.01411   0.04420  -0.25639  -0.03873  -0.03873
   34 F3      .Y       -0.04289  -0.00923   0.44408   0.06708   0.06708
   35 F3      .Z       -0.00000  -0.00000  -0.00000   0.02198  -0.02198
   36 F3      .S       -0.30226  -0.30226  -0.40388   0.66047   0.66047
   37 F3      .X       -0.07656  -0.06209  -0.27545   0.13673   0.13673
   38 F3      .Y        0.11590   0.12425   0.47709  -0.23683  -0.23683
   39 F3      .Z       -0.00000  -0.00000  -0.00000   0.00297  -0.00297
   40 F3      .XX       0.06430   0.06243   0.02729  -0.13483  -0.13483
   41 F3      .YY       0.02088   0.02276  -0.04841  -0.05560  -0.05560
   42 F3      .ZZ       0.08062   0.08062   0.06216  -0.16511  -0.16511
   43 F3      .XY       0.04092   0.04217   0.07570  -0.07923  -0.07923
   44 F3      .XZ      -0.00000  -0.00000  -0.00000   0.00060  -0.00060
   45 F3      .YZ       0.00000   0.00000   0.00000  -0.00104   0.00104
   46 F4      .S        0.01277   0.07039   0.01277  -0.02705  -0.02705
   47 F4      .S        0.14096  -0.14816   0.14096  -0.28066  -0.28066
   48 F4      .X       -0.01411  -0.25639   0.04420  -0.03873  -0.03873
   49 F4      .Y        0.04289  -0.44408   0.00923  -0.06708  -0.06708
   50 F4      .Z       -0.00000  -0.00000  -0.00000   0.02198  -0.02198
   51 F4      .S       -0.30226  -0.40388  -0.30226   0.66047   0.66047
   52 F4      .X       -0.07656  -0.27545  -0.06209   0.13673   0.13673
   53 F4      .Y       -0.11590  -0.47709  -0.12425   0.23683   0.23683
   54 F4      .Z       -0.00000  -0.00000  -0.00000   0.00297  -0.00297
   55 F4      .XX       0.06430   0.02729   0.06243  -0.13483  -0.13483
   56 F4      .YY       0.02088  -0.04841   0.02276  -0.05560  -0.05560
   57 F4      .ZZ       0.08062   0.06216   0.08062  -0.16511  -0.16511
   58 F4      .XY      -0.04092  -0.07570  -0.04217   0.07923   0.07923
   59 F4      .XZ      -0.00000  -0.00000  -0.00000   0.00060  -0.00060
   60 F4      .YZ      -0.00000  -0.00000  -0.00000   0.00104  -0.00104
   61 F5      .S       -0.02095  -0.02095  -0.02095   0.03701   0.07198
   62 F5      .S       -0.14977  -0.14977  -0.14977   0.29400   0.00331
   63 F5      .X       -0.01392   0.00696   0.00696   0.00000   0.00000
   64 F5      .Y        0.00000   0.01206  -0.01206  -0.00000  -0.00000
   65 F5      .Z        0.03988   0.03987   0.03987  -0.07249   0.40464
   66 F5      .S        0.39181   0.39181   0.39181  -0.73667  -0.56710
   67 F5      .X       -0.00863   0.00431   0.00431   0.00000   0.00000
   68 F5      .Y        0.00000   0.00747  -0.00747  -0.00000  -0.00000
   69 F5      .Z       -0.17151  -0.17151  -0.17151   0.31905   0.61575
   70 F5      .XX      -0.10321  -0.10514  -0.10514   0.19456   0.13738
   71 F5      .YY      -0.10579  -0.10386  -0.10386   0.19456   0.13738
   72 F5      .ZZ      -0.01130  -0.01130  -0.01130   0.02398  -0.07063
   73 F5      .XY       0.00000   0.00129  -0.00129  -0.00000  -0.00000
   74 F5      .XZ       0.00123  -0.00062  -0.00062  -0.00000  -0.00000
   75 F5      .YZ      -0.00000  -0.00107   0.00107   0.00000   0.00000
   76 F6      .S       -0.02095  -0.02095  -0.02095   0.07198   0.03701
   77 F6      .S       -0.14977  -0.14977  -0.14977   0.00331   0.29400
   78 F6      .X       -0.01392   0.00696   0.00696   0.00000   0.00000
   79 F6      .Y        0.00000   0.01206  -0.01206  -0.00000  -0.00000
   80 F6      .Z       -0.03988  -0.03987  -0.03987  -0.40464   0.07249
   81 F6      .S        0.39181   0.39181   0.39181  -0.56710  -0.73667
   82 F6      .X       -0.00863   0.00431   0.00431   0.00000   0.00000
   83 F6      .Y        0.00000   0.00747  -0.00747  -0.00000  -0.00000
   84 F6      .Z        0.17151   0.17151   0.17151  -0.61575  -0.31905
   85 F6      .XX      -0.10321  -0.10514  -0.10514   0.13738   0.19456
   86 F6      .YY      -0.10579  -0.10386  -0.10386   0.13738   0.19456
   87 F6      .ZZ      -0.01130  -0.01130  -0.01130  -0.07063   0.02398
   88 F6      .XY       0.00000   0.00129  -0.00129  -0.00000  -0.00000
   89 F6      .XZ      -0.00123   0.00062   0.00062   0.00000   0.00000
   90 F6      .YZ       0.00000   0.00107  -0.00107  -0.00000  -0.00000
