 Entering Gaussian System

 Standard orientation:



 -------------------------------------------------------
     1   8    0     0.000000     0.000000     0.607968
     2   8    0     0.000000     0.000000    -0.607968
 -------------------------------------------------------

 AO basis set (Overlap normalization):
 Atom  O1     Shell     1 S    6
   5.4846716600e+03   1.8310744300e-03
   8.2523494600e+02   1.3950172200e-02
   1.8804695800e+02   6.8445078100e-02
   5.2964500000e+01   2.3271433600e-01
   1.6897570400e+01   4.7019289800e-01
   5.7996353400e+00   3.5852085300e-01
 Atom  O1     Shell     2 SP   3
   1.5539616250e+01  -1.1077754950e-01   7.0874268230e-02
   3.5999335860e+00  -1.4802626270e-01   3.3975283910e-01
   1.0137617500e+00   1.1307670150e+00   7.2715857730e-01
 Atom  O1     Shell     3 SP   1
   2.7000582260e-01   1.0000000000e+00   1.0000000000e+00
 Atom  O1     Shell     4 D    1
   8.0000000000e-01   1.0000000000e+00
 Atom  O2     Shell     5 S    6
   5.4846716600e+03   1.8310744300e-03
   8.2523494600e+02   1.3950172200e-02
   1.8804695800e+02   6.8445078100e-02
   5.2964500000e+01   2.3271433600e-01
   1.6897570400e+01   4.7019289800e-01
   5.7996353400e+00   3.5852085300e-01
 Atom  O2     Shell     6 SP   3
   1.5539616250e+01  -1.1077754950e-01   7.0874268230e-02
   3.5999335860e+00  -1.4802626270e-01   3.3975283910e-01
   1.0137617500e+00   1.1307670150e+00   7.2715857730e-01
 Atom  O2     Shell     7 SP   1
   2.7000582260e-01   1.0000000000e+00   1.0000000000e+00
 Atom  O2     Shell     8 D    1
   8.0000000000e-01   1.0000000000e+00

  Molecular Orbital Coefficients:
                           1         2         3         4         5
                           O         O         O         O         O    
     Eigenvalues --  -525.37987-525.37338 -34.74087 -21.71971 -14.46343
    1 O1      .S        0.70224   0.70209  -0.15141  -0.16567  -0.06252
    2 O1      .S        0.01911   0.01801   0.35371   0.38984   0.11635
    3 O1      .X        0.00000   0.00000   0.00000   0.00000   0.00000
    4 O1      .Y        0.00000   0.00000   0.00000   0.00000   0.00000
    5 O1      .Z       -0.00121  -0.00083  -0.18281   0.13214   0.46815
    6 O1      .S        0.00494   0.00927   0.22368   0.47791   0.29211
    7 O1      .X        0.00000   0.00000   0.00000   0.00000   0.00000
    8 O1      .Y        0.00000   0.00000   0.00000   0.00000   0.00000
    9 O1      .Z        0.00039  -0.00178  -0.04683   0.03323   0.22153
   10 O1      .XX      -0.00494  -0.00559  -0.01054  -0.00343  -0.00105
   11 O1      .YY      -0.00497  -0.00564  -0.00187   0.00488   0.00232
   12 O1      .ZZ      -0.00526  -0.00461   0.03300  -0.01814  -0.03580
   13 O1      .XY       0.00000   0.00000   0.00000   0.00000   0.00000
   14 O1      .XZ       0.00000   0.00000   0.00000   0.00000   0.00000
   15 O1      .YZ       0.00000   0.00000   0.00000   0.00000   0.00000
   16 O2      .S        0.70224  -0.70209  -0.15141   0.16567  -0.06252
   17 O2      .S        0.01911  -0.01801   0.35371  -0.38984   0.11635
   18 O2      .X        0.00000   0.00000   0.00000   0.00000   0.00000
   19 O2      .Y        0.00000   0.00000   0.00000   0.00000   0.00000
   20 O2      .Z        0.00121  -0.00083   0.18281   0.13214  -0.46815
   21 O2      .S        0.00494  -0.00927   0.22368  -0.47791   0.29211
   22 O2      .X        0.00000   0.00000   0.00000   0.00000   0.00000
   23 O2      .Y        0.00000   0.00000   0.00000   0.00000   0.00000
   24 O2      .Z       -0.00039  -0.00178   0.04683   0.03323  -0.22153
   25 O2      .XX      -0.00494   0.00559  -0.01054   0.00343  -0.00105
   26 O2      .YY      -0.00497   0.00564  -0.00187  -0.00488   0.00232
   27 O2      .ZZ      -0.00526   0.00461   0.03300   0.01814  -0.03580
   28 O2      .XY       0.00000   0.00000   0.00000   0.00000   0.00000
   29 O2      .XZ       0.00000   0.00000   0.00000   0.00000   0.00000
   30 O2      .YZ       0.00000   0.00000   0.00000   0.00000   0.00000
                           6         7         8         9        10
                           O         O         O         V         V    
     Eigenvalues --   -14.02169 -13.81160  -6.80689  -4.87781   5.77184
    1 O1      .S        0.00000   0.00000   0.00000   0.00000  -0.09074
    2 O1      .S        0.00000   0.00000   0.00000   0.00000   0.24210
    3 O1      .X        0.00000   0.46560   0.53478   0.00000   0.00000
    4 O1      .Y        0.45753   0.00000   0.00000   0.52469   0.00000
    5 O1      .Z        0.00000   0.00000   0.00000   0.00000  -0.52282
    6 O1      .S        0.00000   0.00000   0.00000   0.00000   1.05208
    7 O1      .X        0.00000   0.26211   0.39376   0.00000   0.00000
    8 O1      .Y        0.26840   0.00000   0.00000   0.41066   0.00000
    9 O1      .Z        0.00000   0.00000   0.00000   0.00000  -1.00544
   10 O1      .XX       0.00000   0.00000   0.00000   0.00000   0.00605
   11 O1      .YY       0.00000   0.00000   0.00000   0.00000   0.01218
   12 O1      .ZZ       0.00000   0.00000   0.00000   0.00000  -0.00303
   13 O1      .XY       0.00000   0.00000   0.00000   0.00000   0.00000
   14 O1      .XZ       0.00000  -0.03171   0.00626   0.00000   0.00000
   15 O1      .YZ      -0.03627   0.00000   0.00000   0.00610   0.00000
   16 O2      .S        0.00000   0.00000   0.00000   0.00000   0.09074
   17 O2      .S        0.00000   0.00000   0.00000   0.00000  -0.24210
   18 O2      .X        0.00000   0.46560  -0.53478   0.00000   0.00000
   19 O2      .Y        0.45753   0.00000   0.00000  -0.52469   0.00000
   20 O2      .Z        0.00000   0.00000   0.00000   0.00000  -0.52282
   21 O2      .S        0.00000   0.00000   0.00000   0.00000  -1.05208
   22 O2      .X        0.00000   0.26211  -0.39376   0.00000   0.00000
   23 O2      .Y        0.26840   0.00000   0.00000  -0.41066   0.00000
   24 O2      .Z        0.00000   0.00000   0.00000   0.00000  -1.00544
   25 O2      .XX       0.00000   0.00000   0.00000   0.00000  -0.00605
   26 O2      .YY       0.00000   0.00000   0.00000   0.00000  -0.01218
   27 O2      .ZZ       0.00000   0.00000   0.00000   0.00000   0.00303
   28 O2      .XY       0.00000   0.00000   0.00000   0.00000   0.00000
   29 O2      .XZ       0.00000   0.03171   0.00626   0.00000   0.00000
   30 O2      .YZ       0.03627   0.00000   0.00000   0.00610   0.00000
                          11        12        13        14        15
                           V         V         V         V         V    
     Eigenvalues --    18.42081  19.45694  21.56068  22.03224  23.40786
    1 O1      .S       -0.01695   0.00044   0.00000   0.00000   0.02152
    2 O1      .S       -0.91893  -0.27176   0.00000   0.00000   0.03136
    3 O1      .X        0.00000   0.00000   0.00000   0.65627   0.00000
    4 O1      .Y        0.00000   0.00000   0.66069   0.00000   0.00000
    5 O1      .Z       -0.10435  -0.54168   0.00000   0.00000  -0.53999
    6 O1      .S        1.39577  -0.61524   0.00000   0.00000   0.15234
    7 O1      .X        0.00000   0.00000   0.00000  -0.63553   0.00000
    8 O1      .Y        0.00000   0.00000  -0.63286   0.00000   0.00000
    9 O1      .Z        0.00718   1.43956   0.00000   0.00000   0.79537
   10 O1      .XX      -0.26693  -0.05129   0.00000   0.00000  -0.05370
   11 O1      .YY      -0.25809  -0.05106   0.00000   0.00000  -0.07085
   12 O1      .ZZ      -0.35892  -0.36717   0.00000   0.00000   0.16600
   13 O1      .XY       0.00000   0.00000   0.00000   0.00000   0.00000
   14 O1      .XZ       0.00000   0.00000   0.00000  -0.06973   0.00000
   15 O1      .YZ       0.00000   0.00000  -0.07124   0.00000   0.00000
   16 O2      .S       -0.01695  -0.00044   0.00000   0.00000   0.02152
   17 O2      .S       -0.91893   0.27176   0.00000   0.00000   0.03136
   18 O2      .X        0.00000   0.00000   0.00000   0.65627   0.00000
   19 O2      .Y        0.00000   0.00000   0.66069   0.00000   0.00000
   20 O2      .Z        0.10435  -0.54168   0.00000   0.00000   0.53999
   21 O2      .S        1.39577   0.61524   0.00000   0.00000   0.15234
   22 O2      .X        0.00000   0.00000   0.00000  -0.63553   0.00000
   23 O2      .Y        0.00000   0.00000  -0.63286   0.00000   0.00000
   24 O2      .Z       -0.00718   1.43956   0.00000   0.00000  -0.79537
   25 O2      .XX      -0.26693   0.05129   0.00000   0.00000  -0.05370
   26 O2      .YY      -0.25809   0.05106   0.00000   0.00000  -0.07085
   27 O2      .ZZ      -0.35892   0.36717   0.00000   0.00000   0.16600
   28 O2      .XY       0.00000   0.00000   0.00000   0.00000   0.00000
   29 O2      .XZ       0.00000   0.00000   0.00000   0.06973   0.00000
   30 O2      .YZ       0.00000   0.00000   0.07124   0.00000   0.00000
                          16        17        18        19        20
                           V         V         V         V         V    
     Eigenvalues --    24.90515  25.22485  34.95549  40.37119  41.21088
    1 O1      .S        0.00000   0.00000  -0.07072   0.00000   0.00000
    2 O1      .S        0.00000   0.00000  -1.26649   0.00000   0.00000
    3 O1      .X        0.00000  -0.63281   0.00000   0.00000   0.15172
    4 O1      .Y       -0.64120   0.00000   0.00000   0.15701   0.00000
    5 O1      .Z        0.00000   0.00000   0.20098   0.00000   0.00000
    6 O1      .S        0.00000   0.00000   4.83816   0.00000   0.00000
    7 O1      .X        0.00000   1.06471   0.00000   0.00000   0.02133
    8 O1      .Y        1.05859   0.00000   0.00000   0.02243   0.00000
    9 O1      .Z        0.00000   0.00000  -2.33066   0.00000   0.00000
   10 O1      .XX       0.00000   0.00000  -0.33827   0.00000   0.00000
   11 O1      .YY       0.00000   0.00000  -0.32461   0.00000   0.00000
   12 O1      .ZZ       0.00000   0.00000  -0.27840   0.00000   0.00000
   13 O1      .XY       0.00000   0.00000   0.00000   0.00000   0.00000
   14 O1      .XZ       0.00000   0.00019   0.00000   0.00000   0.60547
   15 O1      .YZ      -0.00042   0.00000   0.00000   0.60504   0.00000
   16 O2      .S        0.00000   0.00000   0.07072   0.00000   0.00000
   17 O2      .S        0.00000   0.00000   1.26649   0.00000   0.00000
   18 O2      .X        0.00000   0.63281   0.00000   0.00000   0.15172
   19 O2      .Y        0.64120   0.00000   0.00000   0.15701   0.00000
   20 O2      .Z        0.00000   0.00000   0.20098   0.00000   0.00000
   21 O2      .S        0.00000   0.00000  -4.83816   0.00000   0.00000
   22 O2      .X        0.00000  -1.06471   0.00000   0.00000   0.02133
   23 O2      .Y       -1.05859   0.00000   0.00000   0.02243   0.00000
   24 O2      .Z        0.00000   0.00000  -2.33066   0.00000   0.00000
   25 O2      .XX       0.00000   0.00000   0.33827   0.00000   0.00000
   26 O2      .YY       0.00000   0.00000   0.32461   0.00000   0.00000
   27 O2      .ZZ       0.00000   0.00000   0.27840   0.00000   0.00000
   28 O2      .XY       0.00000   0.00000   0.00000   0.00000   0.00000
   29 O2      .XZ       0.00000   0.00019   0.00000   0.00000  -0.60547
   30 O2      .YZ      -0.00042   0.00000   0.00000  -0.60504   0.00000
                          21        22        23        24        25
                           V         V         V         V         V    
     Eigenvalues --    41.84459  41.89209  52.34684  52.39849  65.58511
    1 O1      .S        0.00000   0.00453   0.00000   0.00573   0.04920
    2 O1      .S        0.00000   0.00620   0.00000   0.01371   0.48364
    3 O1      .X        0.00000   0.00000   0.00000   0.00000   0.00000
    4 O1      .Y        0.00000   0.00000   0.00000   0.00000   0.00000
    5 O1      .Z        0.00000  -0.01190   0.00000   0.00311  -0.45078
    6 O1      .S        0.00000  -0.02807   0.00000  -0.12796  -0.54711
    7 O1      .X        0.00000   0.00000   0.00000   0.00000   0.00000
    8 O1      .Y        0.00000   0.00000   0.00000   0.00000   0.00000
    9 O1      .Z        0.00000   0.01711   0.00000   0.06063   0.45631
   10 O1      .XX       0.00000  -0.56336   0.00000  -0.63331   0.57966
   11 O1      .YY       0.00000   0.59308   0.00000   0.67279   0.56620
   12 O1      .ZZ       0.00000   0.00534   0.00000  -0.00142  -0.53852
   13 O1      .XY       0.66785   0.00000   0.75421   0.00000   0.00000
   14 O1      .XZ       0.00000   0.00000   0.00000   0.00000   0.00000
   15 O1      .YZ       0.00000   0.00000   0.00000   0.00000   0.00000
   16 O2      .S        0.00000   0.00453   0.00000  -0.00573   0.04920
   17 O2      .S        0.00000   0.00620   0.00000  -0.01371   0.48364
   18 O2      .X        0.00000   0.00000   0.00000   0.00000   0.00000
   19 O2      .Y        0.00000   0.00000   0.00000   0.00000   0.00000
   20 O2      .Z        0.00000   0.01190   0.00000   0.00311   0.45078
   21 O2      .S        0.00000  -0.02807   0.00000   0.12796  -0.54711
   22 O2      .X        0.00000   0.00000   0.00000   0.00000   0.00000
   23 O2      .Y        0.00000   0.00000   0.00000   0.00000   0.00000
   24 O2      .Z        0.00000  -0.01711   0.00000   0.06063  -0.45631
   25 O2      .XX       0.00000  -0.56336   0.00000   0.63331   0.57966
   26 O2      .YY       0.00000   0.59308   0.00000  -0.67279   0.56620
   27 O2      .ZZ       0.00000   0.00534   0.00000   0.00142  -0.53852
   28 O2      .XY       0.66785   0.00000  -0.75421   0.00000   0.00000
   29 O2      .XZ       0.00000   0.00000   0.00000   0.00000   0.00000
   30 O2      .YZ       0.00000   0.00000   0.00000   0.00000   0.00000
                          26        27        28        29        30
                           V         V         V         V         V    
     Eigenvalues --    69.03186  69.85439  76.34095  86.31054  95.38922
    1 O1      .S        0.00000   0.00000  -0.03398  -0.28749  -0.34704
    2 O1      .S        0.00000   0.00000  -0.40346   0.51978  -0.01599
    3 O1      .X        0.00000  -0.01067   0.00000   0.00000   0.00000
    4 O1      .Y       -0.01091   0.00000   0.00000   0.00000   0.00000
    5 O1      .Z        0.00000   0.00000  -0.54424  -0.07271   0.19177
    6 O1      .S        0.00000   0.00000   3.34855   1.42171   4.09597
    7 O1      .X        0.00000  -0.49765   0.00000   0.00000   0.00000
    8 O1      .Y       -0.49704   0.00000   0.00000   0.00000   0.00000
    9 O1      .Z        0.00000   0.00000  -2.20550  -0.04675  -1.18375
   10 O1      .XX       0.00000   0.00000  -0.53313  -0.93752  -1.24179
   11 O1      .YY       0.00000   0.00000  -0.52054  -0.92877  -1.22992
   12 O1      .ZZ       0.00000   0.00000   1.43525  -0.86541  -1.02395
   13 O1      .XY       0.00000   0.00000   0.00000   0.00000   0.00000
   14 O1      .XZ       0.00000   1.01430   0.00000   0.00000   0.00000
   15 O1      .YZ       1.01430   0.00000   0.00000   0.00000   0.00000
   16 O2      .S        0.00000   0.00000   0.03398  -0.28749   0.34704
   17 O2      .S        0.00000   0.00000   0.40346   0.51978   0.01599
   18 O2      .X        0.00000   0.01067   0.00000   0.00000   0.00000
   19 O2      .Y        0.01091   0.00000   0.00000   0.00000   0.00000
   20 O2      .Z        0.00000   0.00000  -0.54424   0.07271   0.19177
   21 O2      .S        0.00000   0.00000  -3.34855   1.42171  -4.09597
   22 O2      .X        0.00000   0.49765   0.00000   0.00000   0.00000
   23 O2      .Y        0.49704   0.00000   0.00000   0.00000   0.00000
   24 O2      .Z        0.00000   0.00000  -2.20550   0.04675  -1.18375
   25 O2      .XX       0.00000   0.00000   0.53313  -0.93752   1.24179
   26 O2      .YY       0.00000   0.00000   0.52054  -0.92877   1.22992
   27 O2      .ZZ       0.00000   0.00000  -1.43525  -0.86541   1.02395
   28 O2      .XY       0.00000   0.00000   0.00000   0.00000   0.00000
   29 O2      .XZ       0.00000   1.01430   0.00000   0.00000   0.00000
   30 O2      .YZ       1.01430   0.00000   0.00000   0.00000   0.00000
