 Entering Gaussian System

 Standard orientation:



 -------------------------------------------------------
     1   8    0     0.000000     0.000000     0.607968
     2   8    0     0.000000     0.000000    -0.607968
 -------------------------------------------------------

 AO basis set (Overlap normalization):
 Atom  O1     Shell     1 S    6
   5.4846716600e+03   1.8310744300e-03
   8.2523494600e+02   1.3950172200e-02
   1.8804695800e+02   6.8445078100e-02
   5.2964500000e+01   2.3271433600e-01
   1.6897570400e+01   4.7019289800e-01
   5.7996353400e+00   3.5852085300e-01
 Atom  O1     Shell     2 SP   3
   1.5539616250e+01  -1.1077754950e-01   7.0874268230e-02
   3.5999335860e+00  -1.4802626270e-01   3.3975283910e-01
   1.0137617500e+00   1.1307670150e+00   7.2715857730e-01
 Atom  O1     Shell     3 SP   1
   2.7000582260e-01   1.0000000000e+00   1.0000000000e+00
 Atom  O1     Shell     4 D    1
   8.0000000000e-01   1.0000000000e+00
 Atom  O2     Shell     5 S    6
   5.4846716600e+03   1.8310744300e-03
   8.2523494600e+02   1.3950172200e-02
   1.8804695800e+02   6.8445078100e-02
   5.2964500000e+01   2.3271433600e-01
   1.6897570400e+01   4.7019289800e-01
   5.7996353400e+00   3.5852085300e-01
 Atom  O2     Shell     6 SP   3
   1.5539616250e+01  -1.1077754950e-01   7.0874268230e-02
   3.5999335860e+00  -1.4802626270e-01   3.3975283910e-01
   1.0137617500e+00   1.1307670150e+00   7.2715857730e-01
 Atom  O2     Shell     7 SP   1
   2.7000582260e-01   1.0000000000e+00   1.0000000000e+00
 Atom  O2     Shell     8 D    1
   8.0000000000e-01   1.0000000000e+00

  Molecular Orbital Coefficients:
                           1         2         3         4         5
                           O         O         O         O         O    
     Eigenvalues --  -521.46665-521.46665 -29.58471 -24.54121 -24.54121
    1 O1      .S        1.00886   0.00192   0.03644   0.02064  -0.14340
    2 O1      .S       -0.02110  -0.00144  -0.21316  -0.04189   0.49132
    3 O1      .X        0.00000  -0.00000   0.00000  -0.00000   0.00000
    4 O1      .Y        0.00000   0.00000  -0.00000  -0.00000   0.00000
    5 O1      .Z       -0.00292   0.00973   0.42696   0.08588   0.27852
    6 O1      .S       -0.02445  -0.00935  -0.00304  -0.15122   0.65061
    7 O1      .X        0.00000  -0.00000  -0.00000  -0.00000  -0.00000
    8 O1      .Y        0.00000  -0.00000   0.00000  -0.00000   0.00000
    9 O1      .Z       -0.00646   0.01269   0.17036   0.12438   0.10251
   10 O1      .XX      -0.00852   0.00058   0.00809   0.00700  -0.01217
   11 O1      .YY      -0.00852   0.00058   0.00322   0.00630  -0.00073
   12 O1      .ZZ      -0.00832   0.00019  -0.04745   0.01439  -0.02363
   13 O1      .XY       0.00000  -0.00000   0.00000   0.00000   0.00000
   14 O1      .XZ      -0.00000   0.00000  -0.00000   0.00000  -0.00000
   15 O1      .YZ      -0.00000   0.00000  -0.00000   0.00000  -0.00000
   16 O2      .S        0.00192   1.00886   0.03644  -0.14340   0.02064
   17 O2      .S       -0.00144  -0.02110  -0.21316   0.49132  -0.04189
   18 O2      .X       -0.00000  -0.00000   0.00000   0.00000  -0.00000
   19 O2      .Y       -0.00000   0.00000   0.00000  -0.00000   0.00000
   20 O2      .Z       -0.00973   0.00292  -0.42696  -0.27852  -0.08588
   21 O2      .S       -0.00935  -0.02445  -0.00304   0.65061  -0.15122
   22 O2      .X       -0.00000   0.00000  -0.00000   0.00000   0.00000
   23 O2      .Y       -0.00000   0.00000  -0.00000  -0.00000   0.00000
   24 O2      .Z       -0.01269   0.00646  -0.17036  -0.10251  -0.12438
   25 O2      .XX       0.00058  -0.00852   0.00809  -0.01217   0.00700
   26 O2      .YY       0.00058  -0.00852   0.00322  -0.00073   0.00630
   27 O2      .ZZ       0.00019  -0.00832  -0.04745  -0.02363   0.01439
   28 O2      .XY      -0.00000   0.00000  -0.00000  -0.00000  -0.00000
   29 O2      .XZ      -0.00000   0.00000  -0.00000   0.00000  -0.00000
   30 O2      .YZ      -0.00000   0.00000  -0.00000  -0.00000   0.00000
                           6         7         8         9        10
                           O         O         O         V         V    
     Eigenvalues --   -14.02169 -10.20971 -10.20971  -4.37876   9.77871
    1 O1      .S        0.00000   0.00000   0.00000  -0.00000   0.06248
    2 O1      .S       -0.00000  -0.00000  -0.00000  -0.00000  -0.52265
    3 O1      .X       -0.00000   0.70739  -0.08152   0.00000  -0.00000
    4 O1      .Y        0.45753   0.00000  -0.00000   0.57286   0.00000
    5 O1      .Z       -0.00000   0.00000  -0.00000   0.00000   0.70897
    6 O1      .S        0.00000   0.00000   0.00000   0.00000   0.37295
    7 O1      .X       -0.00000   0.46407  -0.05710   0.00000   0.00000
    8 O1      .Y        0.26840   0.00000  -0.00000   0.35819  -0.00000
    9 O1      .Z       -0.00000  -0.00000  -0.00000  -0.00000   0.10450
   10 O1      .XX      -0.00000  -0.00000  -0.00000  -0.00000  -0.05723
   11 O1      .YY      -0.00000  -0.00000   0.00000  -0.00000  -0.06274
   12 O1      .ZZ       0.00000   0.00000   0.00000  -0.00000  -0.14788
   13 O1      .XY      -0.00000   0.00000  -0.00000  -0.00000   0.00000
   14 O1      .XZ       0.00000  -0.02633   0.00655  -0.00000  -0.00000
   15 O1      .YZ      -0.03627  -0.00000   0.00000  -0.06029   0.00000
   16 O2      .S       -0.00000   0.00000   0.00000   0.00000  -0.06248
   17 O2      .S        0.00000   0.00000   0.00000   0.00000   0.52265
   18 O2      .X        0.00000  -0.08152   0.70739   0.00000   0.00000
   19 O2      .Y        0.45753   0.00000  -0.00000  -0.57286  -0.00000
   20 O2      .Z       -0.00000   0.00000  -0.00000   0.00000   0.70897
   21 O2      .S       -0.00000  -0.00000  -0.00000  -0.00000  -0.37295
   22 O2      .X        0.00000  -0.05710   0.46407   0.00000  -0.00000
   23 O2      .Y        0.26840   0.00000  -0.00000  -0.35819   0.00000
   24 O2      .Z       -0.00000  -0.00000  -0.00000  -0.00000   0.10450
   25 O2      .XX       0.00000   0.00000   0.00000   0.00000   0.05723
   26 O2      .YY       0.00000   0.00000   0.00000   0.00000   0.06274
   27 O2      .ZZ      -0.00000  -0.00000  -0.00000   0.00000   0.14788
   28 O2      .XY      -0.00000  -0.00000  -0.00000  -0.00000  -0.00000
   29 O2      .XZ       0.00000  -0.00655   0.02633  -0.00000  -0.00000
   30 O2      .YZ       0.03627   0.00000  -0.00000  -0.06029   0.00000
                          11        12        13        14        15
                           V         V         V         V         V    
     Eigenvalues --    22.44696  22.44696  23.26966  23.26966  28.99441
    1 O1      .S        0.03396  -0.00147   0.00000  -0.00000   0.11887
    2 O1      .S        0.14828  -1.12924   0.00000  -0.00000   0.02718
    3 O1      .X        0.00000  -0.00000   0.00000   0.00000  -0.00000
    4 O1      .Y       -0.00000   0.00000  -0.05405  -0.89985  -0.00000
    5 O1      .Z       -0.01395  -0.61464   0.00000  -0.00000   0.10733
    6 O1      .S       -0.72685   2.18963  -0.00000   0.00000  -3.12259
    7 O1      .X       -0.00000   0.00000  -0.00000  -0.00000   0.00000
    8 O1      .Y        0.00000  -0.00000  -0.32641   1.21157   0.00000
    9 O1      .Z        0.43383   0.33009   0.00000  -0.00000   1.52937
   10 O1      .XX       0.07322  -0.26960   0.00000  -0.00000   0.24351
   11 O1      .YY       0.07324  -0.26989   0.00000  -0.00000   0.24263
   12 O1      .ZZ       0.06881  -0.27101   0.00000   0.00000   0.25373
   13 O1      .XY      -0.00000  -0.00000  -0.00000  -0.00000  -0.00000
   14 O1      .XZ       0.00000   0.00000  -0.00000  -0.00000  -0.00000
   15 O1      .YZ       0.00000  -0.00000  -0.00003   0.00012   0.00000
   16 O2      .S       -0.00147   0.03396  -0.00000   0.00000  -0.14507
   17 O2      .S       -1.12924   0.14828  -0.00000   0.00000  -1.05851
   18 O2      .X       -0.00000   0.00000   0.00000  -0.00000   0.00000
   19 O2      .Y        0.00000  -0.00000  -0.89985  -0.05405   0.00000
   20 O2      .Z        0.61464   0.01395   0.00000   0.00000  -0.52225
   21 O2      .S        2.18963  -0.72685   0.00000  -0.00000   4.26162
   22 O2      .X        0.00000  -0.00000  -0.00000   0.00000  -0.00000
   23 O2      .Y       -0.00000   0.00000   1.21157  -0.32641  -0.00000
   24 O2      .Z       -0.33009  -0.43383   0.00000  -0.00000   2.49689
   25 O2      .XX      -0.26960   0.07322  -0.00000   0.00000  -0.52028
   26 O2      .YY      -0.26989   0.07324  -0.00000   0.00000  -0.50578
   27 O2      .ZZ      -0.27101   0.06881  -0.00000   0.00000  -0.51018
   28 O2      .XY       0.00000  -0.00000   0.00000   0.00000  -0.00000
   29 O2      .XZ      -0.00000   0.00000  -0.00000  -0.00000   0.00000
   30 O2      .YZ       0.00000  -0.00000  -0.00012   0.00003   0.00000
                          16        17        18        19        20
                           V         V         V         V         V    
     Eigenvalues --    28.99441  34.71392  34.71392  44.34772  44.34772
    1 O1      .S       -0.14507  -0.00000  -0.00000   0.00000  -0.00000
    2 O1      .S       -1.05851  -0.00000   0.00000  -0.00000  -0.00000
    3 O1      .X        0.00000  -0.01623  -0.69207   0.60560  -0.06340
    4 O1      .Y        0.00000   0.00000  -0.00000   0.00000  -0.00000
    5 O1      .Z        0.52225  -0.00000   0.00000  -0.00000  -0.00000
    6 O1      .S        4.26162   0.00000   0.00000  -0.00000   0.00000
    7 O1      .X       -0.00000  -0.00450   0.76758  -0.96503  -0.51985
    8 O1      .Y       -0.00000  -0.00000   0.00000  -0.00000  -0.00000
    9 O1      .Z       -2.49689   0.00000  -0.00000   0.00000  -0.00000
   10 O1      .XX      -0.52028  -0.00000   0.00000  -0.00000  -0.00000
   11 O1      .YY      -0.50578  -0.00000   0.00000   0.00000  -0.00000
   12 O1      .ZZ      -0.51018   0.00000  -0.00000  -0.00000   0.00000
   13 O1      .XY      -0.00000  -0.00000  -0.00000  -0.00000  -0.00000
   14 O1      .XZ      -0.00000  -0.17680   0.71091   0.90200   0.22432
   15 O1      .YZ       0.00000  -0.00000  -0.00000  -0.00000   0.00000
   16 O2      .S        0.11887   0.00000  -0.00000  -0.00000  -0.00000
   17 O2      .S        0.02718   0.00000   0.00000  -0.00000   0.00000
   18 O2      .X       -0.00000  -0.69207  -0.01623   0.06340  -0.60560
   19 O2      .Y       -0.00000  -0.00000  -0.00000   0.00000  -0.00000
   20 O2      .Z       -0.10733  -0.00000   0.00000  -0.00000  -0.00000
   21 O2      .S       -3.12259  -0.00000  -0.00000   0.00000  -0.00000
   22 O2      .X        0.00000   0.76758  -0.00450   0.51985   0.96503
   23 O2      .Y        0.00000   0.00000   0.00000  -0.00000   0.00000
   24 O2      .Z       -1.52937   0.00000  -0.00000   0.00000  -0.00000
   25 O2      .XX       0.24351   0.00000  -0.00000  -0.00000   0.00000
   26 O2      .YY       0.24263   0.00000  -0.00000  -0.00000  -0.00000
   27 O2      .ZZ       0.25373  -0.00000   0.00000  -0.00000  -0.00000
   28 O2      .XY      -0.00000   0.00000  -0.00000   0.00000  -0.00000
   29 O2      .XZ      -0.00000  -0.71091   0.17680   0.22432   0.90200
   30 O2      .YZ       0.00000  -0.00000  -0.00000   0.00000   0.00000
                          21        22        23        24        25
                           V         V         V         V         V    
     Eigenvalues --    47.09571  47.0957127211.395227211.395227211.3952
    1 O1      .S       -0.00000  -0.00000  -0.00244   0.00120   0.00000
    2 O1      .S       -0.00000  -0.00000  -0.00320  -0.00100  -0.00000
    3 O1      .X       -0.00000   0.00000   0.00000   0.00000   0.00000
    4 O1      .Y        0.00000  -0.00000  -0.00000   0.00000  -0.03683
    5 O1      .Z        0.00000  -0.00000   0.00289   0.00229  -0.00000
    6 O1      .S        0.00000   0.00000   0.03819  -0.02570   0.00000
    7 O1      .X        0.00000  -0.00000  -0.00000  -0.00000   0.00000
    8 O1      .Y        0.00000   0.00000   0.00000  -0.00000  -0.40367
    9 O1      .Z       -0.00000  -0.00000  -0.02096   0.01325  -0.00000
   10 O1      .XX      -0.00000  -0.00000   0.86671  -0.05102   0.00000
   11 O1      .YY      -0.00000  -0.00000  -0.87485   0.05473   0.00000
   12 O1      .ZZ      -0.00000   0.00000  -0.00378   0.00190  -0.00000
   13 O1      .XY      -0.06106   1.00555  -0.00000   0.00000   0.00000
   14 O1      .XZ      -0.00000   0.00000   0.00000   0.00000  -0.00000
   15 O1      .YZ      -0.00000   0.00000   0.00000  -0.00000   0.28519
   16 O2      .S        0.00000  -0.00000   0.00120  -0.00244   0.00000
   17 O2      .S       -0.00000   0.00000  -0.00100  -0.00320   0.00000
   18 O2      .X       -0.00000  -0.00000   0.00000   0.00000   0.00000
   19 O2      .Y        0.00000  -0.00000   0.00000   0.00000  -0.07454
   20 O2      .Z       -0.00000   0.00000  -0.00229  -0.00289   0.00000
   21 O2      .S       -0.00000   0.00000  -0.02570   0.03819  -0.00000
   22 O2      .X        0.00000   0.00000  -0.00000   0.00000  -0.00000
   23 O2      .Y       -0.00000   0.00000  -0.00000  -0.00000   0.26761
   24 O2      .Z        0.00000  -0.00000  -0.01325   0.02096  -0.00000
   25 O2      .XX       0.00000  -0.00000  -0.05102   0.86671   0.00000
   26 O2      .YY       0.00000  -0.00000   0.05473  -0.87485   0.00000
   27 O2      .ZZ       0.00000  -0.00000   0.00190  -0.00378   0.00000
   28 O2      .XY       1.00555  -0.06106  -0.00000  -0.00000   0.00000
   29 O2      .XZ       0.00000   0.00000   0.00000   0.00000  -0.00000
   30 O2      .YZ      -0.00000  -0.00000  -0.00000  -0.00000   1.14675
                          26        27        28        29        30
                           V         V         V         V         V    
     Eigenvalues --  27211.395227211.395227211.395227211.395227211.3952
    1 O1      .S       -0.00000   0.10553  -0.05161   0.00084   0.40853
    2 O1      .S       -0.00000   0.53960   0.00847  -0.08677  -0.51108
    3 O1      .X        0.00000   0.00000  -0.00000  -0.00000   0.00000
    4 O1      .Y        0.07454  -0.00000   0.00000   0.00000   0.00000
    5 O1      .Z       -0.00000   0.01843  -0.49575   0.18865  -0.08569
    6 O1      .S        0.00000  -3.30101   2.72956   0.11739  -2.31782
    7 O1      .X        0.00000  -0.00000   0.00000  -0.00000  -0.00000
    8 O1      .Y       -0.26761   0.00000  -0.00000  -0.00000  -0.00000
    9 O1      .Z       -0.00000   2.01079  -1.61795   0.23619  -0.16111
   10 O1      .XX      -0.00000   0.93827  -0.19303   0.00330   1.36677
   11 O1      .YY       0.00000   0.93830  -0.19303   0.00330   1.36679
   12 O1      .ZZ       0.00000  -1.26365   0.40083  -0.26380   1.50465
   13 O1      .XY      -0.00000   0.00000  -0.00000   0.00000   0.00000
   14 O1      .XZ       0.00000  -0.00000   0.00000   0.00000  -0.00000
   15 O1      .YZ       1.14675  -0.00000  -0.00000   0.00000  -0.00000
   16 O2      .S        0.00000  -0.05161   0.10553   0.40853   0.00084
   17 O2      .S        0.00000   0.00847   0.53960  -0.51108  -0.08677
   18 O2      .X        0.00000  -0.00000   0.00000   0.00000  -0.00000
   19 O2      .Y        0.03683   0.00000  -0.00000  -0.00000   0.00000
   20 O2      .Z        0.00000   0.49575  -0.01843   0.08569  -0.18865
   21 O2      .S       -0.00000   2.72956  -3.30101  -2.31782   0.11739
   22 O2      .X       -0.00000   0.00000  -0.00000   0.00000   0.00000
   23 O2      .Y        0.40367  -0.00000   0.00000   0.00000  -0.00000
   24 O2      .Z       -0.00000   1.61795  -2.01079   0.16111  -0.23619
   25 O2      .XX       0.00000  -0.19303   0.93827   1.36677   0.00330
   26 O2      .YY       0.00000  -0.19303   0.93830   1.36679   0.00330
   27 O2      .ZZ      -0.00000   0.40083  -1.26365   1.50465  -0.26380
   28 O2      .XY       0.00000   0.00000   0.00000  -0.00000   0.00000
   29 O2      .XZ      -0.00000  -0.00000  -0.00000   0.00000  -0.00000
   30 O2      .YZ       0.28519  -0.00000  -0.00000   0.00000  -0.00000
