 Entering Gaussian System

 Standard orientation:



 -------------------------------------------------------
     1   8    0     0.000000     0.000000     0.607268
     2   8    0     0.000000     0.000000    -0.607268
 -------------------------------------------------------

 AO basis set (Overlap normalization):
 Atom  O1     Shell     1 S    6
   5.4846716600e+03   1.8310744300e-03
   8.2523494600e+02   1.3950172200e-02
   1.8804695800e+02   6.8445078100e-02
   5.2964500000e+01   2.3271433600e-01
   1.6897570400e+01   4.7019289800e-01
   5.7996353400e+00   3.5852085300e-01
 Atom  O1     Shell     2 SP   3
   1.5539616250e+01  -1.1077754950e-01   7.0874268230e-02
   3.5999335860e+00  -1.4802626270e-01   3.3975283910e-01
   1.0137617500e+00   1.1307670150e+00   7.2715857730e-01
 Atom  O1     Shell     3 SP   1
   2.7000582260e-01   1.0000000000e+00   1.0000000000e+00
 Atom  O1     Shell     4 D    1
   8.0000000000e-01   1.0000000000e+00
 Atom  O2     Shell     5 S    6
   5.4846716600e+03   1.8310744300e-03
   8.2523494600e+02   1.3950172200e-02
   1.8804695800e+02   6.8445078100e-02
   5.2964500000e+01   2.3271433600e-01
   1.6897570400e+01   4.7019289800e-01
   5.7996353400e+00   3.5852085300e-01
 Atom  O2     Shell     6 SP   3
   1.5539616250e+01  -1.1077754950e-01   7.0874268230e-02
   3.5999335860e+00  -1.4802626270e-01   3.3975283910e-01
   1.0137617500e+00   1.1307670150e+00   7.2715857730e-01
 Atom  O2     Shell     7 SP   1
   2.7000582260e-01   1.0000000000e+00   1.0000000000e+00
 Atom  O2     Shell     8 D    1
   8.0000000000e-01   1.0000000000e+00

 Alpha Molecular Orbital Coefficients:
                           1         2         3         4         5
                           O         O         O         O         O    
     Eigenvalues --  -525.51367-525.50890 -35.42450 -22.80257 -15.22212
    1 O1      .S        0.70206   0.70188  -0.15314  -0.16720   0.00000
    2 O1      .S        0.01975   0.01853   0.36384   0.39824   0.00000
    3 O1      .X        0.00000   0.00000   0.00000   0.00000   0.47644
    4 O1      .Y        0.00000   0.00000   0.00000   0.00000   0.00000
    5 O1      .Z       -0.00124  -0.00076  -0.17694   0.12821   0.00000
    6 O1      .S        0.00529   0.00994   0.22181   0.47342   0.00000
    7 O1      .X        0.00000   0.00000   0.00000   0.00000   0.25211
    8 O1      .Y        0.00000   0.00000   0.00000   0.00000   0.00000
    9 O1      .Z        0.00041  -0.00183  -0.04234   0.02780   0.00000
   10 O1      .XX      -0.00518  -0.00588  -0.00394   0.00350   0.00000
   11 O1      .YY      -0.00518  -0.00588  -0.00394   0.00350   0.00000
   12 O1      .ZZ      -0.00563  -0.00506   0.02823  -0.02355   0.00000
   13 O1      .XY       0.00000   0.00000   0.00000   0.00000   0.00000
   14 O1      .XZ       0.00000   0.00000   0.00000   0.00000  -0.03005
   15 O1      .YZ       0.00000   0.00000   0.00000   0.00000   0.00000
   16 O2      .S        0.70206  -0.70188  -0.15314   0.16720   0.00000
   17 O2      .S        0.01975  -0.01853   0.36384  -0.39824   0.00000
   18 O2      .X        0.00000   0.00000   0.00000   0.00000   0.47644
   19 O2      .Y        0.00000   0.00000   0.00000   0.00000   0.00000
   20 O2      .Z        0.00124  -0.00076   0.17694   0.12821   0.00000
   21 O2      .S        0.00529  -0.00994   0.22181  -0.47342   0.00000
   22 O2      .X        0.00000   0.00000   0.00000   0.00000   0.25211
   23 O2      .Y        0.00000   0.00000   0.00000   0.00000   0.00000
   24 O2      .Z       -0.00041  -0.00183   0.04234   0.02780   0.00000
   25 O2      .XX      -0.00518   0.00588  -0.00394  -0.00350   0.00000
   26 O2      .YY      -0.00518   0.00588  -0.00394  -0.00350   0.00000
   27 O2      .ZZ      -0.00563   0.00506   0.02823   0.02355   0.00000
   28 O2      .XY       0.00000   0.00000   0.00000   0.00000   0.00000
   29 O2      .XZ       0.00000   0.00000   0.00000   0.00000   0.03005
   30 O2      .YZ       0.00000   0.00000   0.00000   0.00000   0.00000
                           6         7         8         9        10
                           O         O         O         O         V    
     Eigenvalues --   -15.22212 -14.89603  -8.38527  -8.38527   5.34520
    1 O1      .S        0.00000  -0.06023   0.00000   0.00000  -0.08831
    2 O1      .S        0.00000   0.11577   0.00000   0.00000   0.24236
    3 O1      .X        0.00000   0.00000   0.54516   0.00000   0.00000
    4 O1      .Y        0.47644   0.00000   0.00000   0.54516   0.00000
    5 O1      .Z        0.00000   0.47242   0.00000   0.00000  -0.52778
    6 O1      .S        0.00000   0.28139   0.00000   0.00000   1.01938
    7 O1      .X        0.00000   0.00000   0.37670   0.00000   0.00000
    8 O1      .Y        0.25211   0.00000   0.00000   0.37670   0.00000
    9 O1      .Z        0.00000   0.22002   0.00000   0.00000  -0.98672
   10 O1      .XX       0.00000   0.00327   0.00000   0.00000   0.01076
   11 O1      .YY       0.00000   0.00327   0.00000   0.00000   0.01076
   12 O1      .ZZ       0.00000  -0.03698   0.00000   0.00000  -0.00573
   13 O1      .XY       0.00000   0.00000   0.00000   0.00000   0.00000
   14 O1      .XZ       0.00000   0.00000   0.00608   0.00000   0.00000
   15 O1      .YZ      -0.03005   0.00000   0.00000   0.00608   0.00000
   16 O2      .S        0.00000  -0.06023   0.00000   0.00000   0.08831
   17 O2      .S        0.00000   0.11577   0.00000   0.00000  -0.24236
   18 O2      .X        0.00000   0.00000  -0.54516   0.00000   0.00000
   19 O2      .Y        0.47644   0.00000   0.00000  -0.54516   0.00000
   20 O2      .Z        0.00000  -0.47242   0.00000   0.00000  -0.52778
   21 O2      .S        0.00000   0.28139   0.00000   0.00000  -1.01938
   22 O2      .X        0.00000   0.00000  -0.37670   0.00000   0.00000
   23 O2      .Y        0.25211   0.00000   0.00000  -0.37670   0.00000
   24 O2      .Z        0.00000  -0.22002   0.00000   0.00000  -0.98672
   25 O2      .XX       0.00000   0.00327   0.00000   0.00000  -0.01076
   26 O2      .YY       0.00000   0.00327   0.00000   0.00000  -0.01076
   27 O2      .ZZ       0.00000  -0.03698   0.00000   0.00000   0.00573
   28 O2      .XY       0.00000   0.00000   0.00000   0.00000   0.00000
   29 O2      .XZ       0.00000   0.00000   0.00608   0.00000   0.00000
   30 O2      .YZ       0.03005   0.00000   0.00000   0.00608   0.00000
                          11        12        13        14        15
                           V         V         V         V         V    
     Eigenvalues --    18.21920  19.28309  21.13668  21.13668  23.30316
    1 O1      .S       -0.01637   0.00022   0.00000   0.00000   0.02151
    2 O1      .S       -0.91823  -0.27901   0.00000   0.00000   0.05302
    3 O1      .X        0.00000   0.00000   0.00000   0.64954   0.00000
    4 O1      .Y        0.00000   0.00000   0.64954   0.00000   0.00000
    5 O1      .Z       -0.11539  -0.53865   0.00000   0.00000  -0.53437
    6 O1      .S        1.39697  -0.59599   0.00000   0.00000   0.12142
    7 O1      .X        0.00000   0.00000   0.00000  -0.63935   0.00000
    8 O1      .Y        0.00000   0.00000  -0.63935   0.00000   0.00000
    9 O1      .Z        0.02595   1.43128   0.00000   0.00000   0.79532
   10 O1      .XX      -0.26163  -0.05274   0.00000   0.00000  -0.05684
   11 O1      .YY      -0.26163  -0.05274   0.00000   0.00000  -0.05684
   12 O1      .ZZ      -0.35097  -0.36546   0.00000   0.00000   0.17580
   13 O1      .XY       0.00000   0.00000   0.00000   0.00000   0.00000
   14 O1      .XZ       0.00000   0.00000   0.00000  -0.06633   0.00000
   15 O1      .YZ       0.00000   0.00000  -0.06633   0.00000   0.00000
   16 O2      .S       -0.01637  -0.00022   0.00000   0.00000   0.02151
   17 O2      .S       -0.91823   0.27901   0.00000   0.00000   0.05302
   18 O2      .X        0.00000   0.00000   0.00000   0.64954   0.00000
   19 O2      .Y        0.00000   0.00000   0.64954   0.00000   0.00000
   20 O2      .Z        0.11539  -0.53865   0.00000   0.00000   0.53437
   21 O2      .S        1.39697   0.59599   0.00000   0.00000   0.12142
   22 O2      .X        0.00000   0.00000   0.00000  -0.63935   0.00000
   23 O2      .Y        0.00000   0.00000  -0.63935   0.00000   0.00000
   24 O2      .Z       -0.02595   1.43128   0.00000   0.00000  -0.79532
   25 O2      .XX      -0.26163   0.05274   0.00000   0.00000  -0.05684
   26 O2      .YY      -0.26163   0.05274   0.00000   0.00000  -0.05684
   27 O2      .ZZ      -0.35097   0.36546   0.00000   0.00000   0.17580
   28 O2      .XY       0.00000   0.00000   0.00000   0.00000   0.00000
   29 O2      .XZ       0.00000   0.00000   0.00000   0.06633   0.00000
   30 O2      .YZ       0.00000   0.00000   0.06633   0.00000   0.00000
                          16        17        18        19        20
                           V         V         V         V         V    
     Eigenvalues --    24.37338  24.37338  34.66429  40.44641  40.44641
    1 O1      .S        0.00000   0.00000  -0.07033   0.00000   0.00000
    2 O1      .S        0.00000   0.00000  -1.26431   0.00000   0.00000
    3 O1      .X        0.00000  -0.62397   0.00000   0.00000   0.14698
    4 O1      .Y       -0.62397   0.00000   0.00000   0.14698   0.00000
    5 O1      .Z        0.00000   0.00000   0.19977   0.00000   0.00000
    6 O1      .S        0.00000   0.00000   4.85194   0.00000   0.00000
    7 O1      .X        0.00000   1.07105   0.00000   0.00000   0.02306
    8 O1      .Y        1.07105   0.00000   0.00000   0.02306   0.00000
    9 O1      .Z        0.00000   0.00000  -2.34754   0.00000   0.00000
   10 O1      .XX       0.00000   0.00000  -0.32803   0.00000   0.00000
   11 O1      .YY       0.00000   0.00000  -0.32803   0.00000   0.00000
   12 O1      .ZZ       0.00000   0.00000  -0.27134   0.00000   0.00000
   13 O1      .XY       0.00000   0.00000   0.00000   0.00000   0.00000
   14 O1      .XZ       0.00000   0.00166   0.00000   0.00000   0.60581
   15 O1      .YZ       0.00166   0.00000   0.00000   0.60581   0.00000
   16 O2      .S        0.00000   0.00000   0.07033   0.00000   0.00000
   17 O2      .S        0.00000   0.00000   1.26431   0.00000   0.00000
   18 O2      .X        0.00000   0.62397   0.00000   0.00000   0.14698
   19 O2      .Y        0.62397   0.00000   0.00000   0.14698   0.00000
   20 O2      .Z        0.00000   0.00000   0.19977   0.00000   0.00000
   21 O2      .S        0.00000   0.00000  -4.85194   0.00000   0.00000
   22 O2      .X        0.00000  -1.07105   0.00000   0.00000   0.02306
   23 O2      .Y       -1.07105   0.00000   0.00000   0.02306   0.00000
   24 O2      .Z        0.00000   0.00000  -2.34754   0.00000   0.00000
   25 O2      .XX       0.00000   0.00000   0.32803   0.00000   0.00000
   26 O2      .YY       0.00000   0.00000   0.32803   0.00000   0.00000
   27 O2      .ZZ       0.00000   0.00000   0.27134   0.00000   0.00000
   28 O2      .XY       0.00000   0.00000   0.00000   0.00000   0.00000
   29 O2      .XZ       0.00000   0.00166   0.00000   0.00000  -0.60581
   30 O2      .YZ       0.00166   0.00000   0.00000  -0.60581   0.00000
                          21        22        23        24        25
                           V         V         V         V         V    
     Eigenvalues --    41.18382  41.18383  51.50988  51.50989  65.27200
    1 O1      .S        0.00000   0.00000   0.00000   0.00000   0.05076
    2 O1      .S        0.00000   0.00000   0.00000   0.00000   0.48102
    3 O1      .X        0.00000   0.00000   0.00000   0.00000   0.00000
    4 O1      .Y        0.00000   0.00000   0.00000   0.00000   0.00000
    5 O1      .Z        0.00000  -0.00000   0.00000  -0.00000  -0.45260
    6 O1      .S        0.00000  -0.00000   0.00000  -0.00000  -0.54907
    7 O1      .X        0.00000   0.00000   0.00000   0.00000   0.00000
    8 O1      .Y        0.00000   0.00000   0.00000   0.00000   0.00000
    9 O1      .Z        0.00000   0.00000   0.00000   0.00000   0.45954
   10 O1      .XX       0.00000   0.57823   0.00000   0.65338   0.57406
   11 O1      .YY       0.00000  -0.57823   0.00000  -0.65338   0.57406
   12 O1      .ZZ       0.00000   0.00000   0.00000   0.00000  -0.53878
   13 O1      .XY       0.66768   0.00000   0.75446   0.00000   0.00000
   14 O1      .XZ       0.00000   0.00000   0.00000   0.00000   0.00000
   15 O1      .YZ       0.00000   0.00000   0.00000   0.00000   0.00000
   16 O2      .S        0.00000   0.00000   0.00000  -0.00000   0.05076
   17 O2      .S        0.00000   0.00000   0.00000  -0.00000   0.48102
   18 O2      .X        0.00000   0.00000   0.00000   0.00000   0.00000
   19 O2      .Y        0.00000   0.00000   0.00000   0.00000   0.00000
   20 O2      .Z        0.00000   0.00000   0.00000  -0.00000   0.45260
   21 O2      .S        0.00000  -0.00000   0.00000   0.00000  -0.54907
   22 O2      .X        0.00000   0.00000   0.00000   0.00000   0.00000
   23 O2      .Y        0.00000   0.00000   0.00000   0.00000   0.00000
   24 O2      .Z        0.00000  -0.00000   0.00000   0.00000  -0.45954
   25 O2      .XX       0.00000   0.57823   0.00000  -0.65338   0.57406
   26 O2      .YY       0.00000  -0.57823   0.00000   0.65338   0.57406
   27 O2      .ZZ       0.00000   0.00000   0.00000  -0.00000  -0.53878
   28 O2      .XY       0.66768   0.00000  -0.75446   0.00000   0.00000
   29 O2      .XZ       0.00000   0.00000   0.00000   0.00000   0.00000
   30 O2      .YZ       0.00000   0.00000   0.00000   0.00000   0.00000
                          26        27        28        29        30
                           V         V         V         V         V    
     Eigenvalues --    68.98763  68.98763  76.06737  85.82765  94.89453
    1 O1      .S        0.00000   0.00000  -0.03469  -0.28730  -0.34754
    2 O1      .S        0.00000   0.00000  -0.39643   0.51659  -0.02152
    3 O1      .X       -0.01046   0.00000   0.00000   0.00000   0.00000
    4 O1      .Y        0.00000  -0.01046   0.00000   0.00000   0.00000
    5 O1      .Z        0.00000   0.00000  -0.54639  -0.07363   0.19297
    6 O1      .S        0.00000   0.00000   3.35745   1.42537   4.11764
    7 O1      .X       -0.50062   0.00000   0.00000   0.00000   0.00000
    8 O1      .Y        0.00000  -0.50062   0.00000   0.00000   0.00000
    9 O1      .Z        0.00000   0.00000  -2.21043  -0.04595  -1.19188
   10 O1      .XX       0.00000   0.00000  -0.52671  -0.93337  -1.23719
   11 O1      .YY       0.00000   0.00000  -0.52671  -0.93337  -1.23719
   12 O1      .ZZ       0.00000   0.00000   1.43628  -0.86769  -1.02624
   13 O1      .XY       0.00000   0.00000   0.00000   0.00000   0.00000
   14 O1      .XZ       1.01560   0.00000   0.00000   0.00000   0.00000
   15 O1      .YZ       0.00000   1.01560   0.00000   0.00000   0.00000
   16 O2      .S        0.00000   0.00000   0.03469  -0.28730   0.34754
   17 O2      .S        0.00000   0.00000   0.39643   0.51659   0.02152
   18 O2      .X        0.01046   0.00000   0.00000   0.00000   0.00000
   19 O2      .Y        0.00000   0.01046   0.00000   0.00000   0.00000
   20 O2      .Z        0.00000   0.00000  -0.54639   0.07363   0.19297
   21 O2      .S        0.00000   0.00000  -3.35745   1.42537  -4.11764
   22 O2      .X        0.50062   0.00000   0.00000   0.00000   0.00000
   23 O2      .Y        0.00000   0.50062   0.00000   0.00000   0.00000
   24 O2      .Z        0.00000   0.00000  -2.21043   0.04595  -1.19188
   25 O2      .XX       0.00000   0.00000   0.52671  -0.93337   1.23719
   26 O2      .YY       0.00000   0.00000   0.52671  -0.93337   1.23719
   27 O2      .ZZ       0.00000   0.00000  -1.43628  -0.86769   1.02624
   28 O2      .XY       0.00000   0.00000   0.00000   0.00000   0.00000
   29 O2      .XZ       1.01560   0.00000   0.00000   0.00000   0.00000
   30 O2      .YZ       0.00000   1.01560   0.00000   0.00000   0.00000

 Beta Molecular Orbital Coefficients:
                           1         2         3         4         5
                           O         O         O         O         O    
     Eigenvalues --  -524.71583-524.70770 -33.84863 -20.38984 -13.81695
    1 O1      .S        0.70240   0.70226  -0.14968  -0.16364  -0.06461
    2 O1      .S        0.01855   0.01755   0.34202   0.37870   0.11486
    3 O1      .X        0.00000   0.00000   0.00000   0.00000   0.00000
    4 O1      .Y        0.00000   0.00000   0.00000   0.00000   0.00000
    5 O1      .Z       -0.00117  -0.00089  -0.18852   0.13746   0.46234
    6 O1      .S        0.00464   0.00876   0.22623   0.48137   0.30557
    7 O1      .X        0.00000   0.00000   0.00000   0.00000   0.00000
    8 O1      .Y        0.00000   0.00000   0.00000   0.00000   0.00000
    9 O1      .Z        0.00036  -0.00177  -0.05149   0.04238   0.22484
   10 O1      .XX      -0.00477  -0.00540  -0.00855  -0.00209  -0.00242
   11 O1      .YY      -0.00477  -0.00540  -0.00855  -0.00209  -0.00242
   12 O1      .ZZ      -0.00493  -0.00418   0.03784  -0.01236  -0.03428
   13 O1      .XY       0.00000   0.00000   0.00000   0.00000   0.00000
   14 O1      .XZ       0.00000   0.00000   0.00000   0.00000   0.00000
   15 O1      .YZ       0.00000   0.00000   0.00000   0.00000   0.00000
   16 O2      .S        0.70240  -0.70226  -0.14968   0.16364  -0.06461
   17 O2      .S        0.01855  -0.01755   0.34202  -0.37870   0.11486
   18 O2      .X        0.00000   0.00000   0.00000   0.00000   0.00000
   19 O2      .Y        0.00000   0.00000   0.00000   0.00000   0.00000
   20 O2      .Z        0.00117  -0.00089   0.18852   0.13746  -0.46234
   21 O2      .S        0.00464  -0.00876   0.22623  -0.48137   0.30557
   22 O2      .X        0.00000   0.00000   0.00000   0.00000   0.00000
   23 O2      .Y        0.00000   0.00000   0.00000   0.00000   0.00000
   24 O2      .Z       -0.00036  -0.00177   0.05149   0.04238  -0.22484
   25 O2      .XX      -0.00477   0.00540  -0.00855   0.00209  -0.00242
   26 O2      .YY      -0.00477   0.00540  -0.00855   0.00209  -0.00242
   27 O2      .ZZ      -0.00493   0.00418   0.03784   0.01236  -0.03428
   28 O2      .XY       0.00000   0.00000   0.00000   0.00000   0.00000
   29 O2      .XZ       0.00000   0.00000   0.00000   0.00000   0.00000
   30 O2      .YZ       0.00000   0.00000   0.00000   0.00000   0.00000
                           6         7         8         9        10
                           O         O         V         V         V    
     Eigenvalues --   -12.43424 -12.43424  -3.06843  -3.06843   6.54896
    1 O1      .S        0.00000   0.00000   0.00000   0.00000  -0.09424
    2 O1      .S        0.00000   0.00000   0.00000   0.00000   0.24277
    3 O1      .X        0.00000   0.44379   0.51069   0.00000   0.00000
    4 O1      .Y        0.44379   0.00000   0.00000   0.51069   0.00000
    5 O1      .Z        0.00000   0.00000   0.00000   0.00000  -0.51106
    6 O1      .S        0.00000   0.00000   0.00000   0.00000   1.11821
    7 O1      .X        0.00000   0.28039   0.43375   0.00000   0.00000
    8 O1      .Y        0.28039   0.00000   0.00000   0.43375   0.00000
    9 O1      .Z        0.00000   0.00000   0.00000   0.00000  -1.05077
   10 O1      .XX       0.00000   0.00000   0.00000   0.00000   0.00726
   11 O1      .YY       0.00000   0.00000   0.00000   0.00000   0.00726
   12 O1      .ZZ       0.00000   0.00000   0.00000   0.00000   0.00199
   13 O1      .XY       0.00000   0.00000   0.00000   0.00000   0.00000
   14 O1      .XZ       0.00000  -0.03782   0.00654   0.00000   0.00000
   15 O1      .YZ      -0.03782   0.00000   0.00000   0.00654   0.00000
   16 O2      .S        0.00000   0.00000   0.00000   0.00000   0.09424
   17 O2      .S        0.00000   0.00000   0.00000   0.00000  -0.24277
   18 O2      .X        0.00000   0.44379  -0.51069   0.00000   0.00000
   19 O2      .Y        0.44379   0.00000   0.00000  -0.51069   0.00000
   20 O2      .Z        0.00000   0.00000   0.00000   0.00000  -0.51106
   21 O2      .S        0.00000   0.00000   0.00000   0.00000  -1.11821
   22 O2      .X        0.00000   0.28039  -0.43375   0.00000   0.00000
   23 O2      .Y        0.28039   0.00000   0.00000  -0.43375   0.00000
   24 O2      .Z        0.00000   0.00000   0.00000   0.00000  -1.05077
   25 O2      .XX       0.00000   0.00000   0.00000   0.00000  -0.00726
   26 O2      .YY       0.00000   0.00000   0.00000   0.00000  -0.00726
   27 O2      .ZZ       0.00000   0.00000   0.00000   0.00000  -0.00199
   28 O2      .XY       0.00000   0.00000   0.00000   0.00000   0.00000
   29 O2      .XZ       0.00000   0.03782   0.00654   0.00000   0.00000
   30 O2      .YZ       0.03782   0.00000   0.00000   0.00654   0.00000
                          11        12        13        14        15
                           V         V         V         V         V    
     Eigenvalues --    18.72967  19.76764  22.65182  22.65182  23.62553
    1 O1      .S       -0.01767  -0.00042   0.00000   0.00000   0.02179
    2 O1      .S       -0.91915  -0.26203   0.00000   0.00000   0.00719
    3 O1      .X        0.00000   0.00000   0.66809   0.00000   0.00000
    4 O1      .Y        0.00000   0.00000   0.00000   0.66809   0.00000
    5 O1      .Z       -0.09266  -0.54886   0.00000   0.00000  -0.54646
    6 O1      .S        1.39375  -0.63498   0.00000   0.00000   0.18624
    7 O1      .X        0.00000   0.00000  -0.62760   0.00000   0.00000
    8 O1      .Y        0.00000   0.00000   0.00000  -0.62760   0.00000
    9 O1      .Z       -0.01512   1.44277   0.00000   0.00000   0.79582
   10 O1      .XX      -0.26427  -0.04914   0.00000   0.00000  -0.06786
   11 O1      .YY      -0.26427  -0.04914   0.00000   0.00000  -0.06786
   12 O1      .ZZ      -0.36754  -0.37232   0.00000   0.00000   0.15418
   13 O1      .XY       0.00000   0.00000   0.00000   0.00000   0.00000
   14 O1      .XZ       0.00000   0.00000  -0.07665   0.00000   0.00000
   15 O1      .YZ       0.00000   0.00000   0.00000  -0.07665   0.00000
   16 O2      .S       -0.01767   0.00042   0.00000   0.00000   0.02179
   17 O2      .S       -0.91915   0.26203   0.00000   0.00000   0.00719
   18 O2      .X        0.00000   0.00000   0.66809   0.00000   0.00000
   19 O2      .Y        0.00000   0.00000   0.00000   0.66809   0.00000
   20 O2      .Z        0.09266  -0.54886   0.00000   0.00000   0.54646
   21 O2      .S        1.39375   0.63498   0.00000   0.00000   0.18624
   22 O2      .X        0.00000   0.00000  -0.62760   0.00000   0.00000
   23 O2      .Y        0.00000   0.00000   0.00000  -0.62760   0.00000
   24 O2      .Z        0.01512   1.44277   0.00000   0.00000  -0.79582
   25 O2      .XX      -0.26427   0.04914   0.00000   0.00000  -0.06786
   26 O2      .YY      -0.26427   0.04914   0.00000   0.00000  -0.06786
   27 O2      .ZZ      -0.36754   0.37232   0.00000   0.00000   0.15418
   28 O2      .XY       0.00000   0.00000   0.00000   0.00000   0.00000
   29 O2      .XZ       0.00000   0.00000   0.07665   0.00000   0.00000
   30 O2      .YZ       0.00000   0.00000   0.00000   0.07665   0.00000
                          16        17        18        19        20
                           V         V         V         V         V    
     Eigenvalues --    25.95052  25.95052  35.41171  41.35269  41.35269
    1 O1      .S        0.00000   0.00000  -0.07107   0.00000   0.00000
    2 O1      .S        0.00000   0.00000  -1.27174   0.00000   0.00000
    3 O1      .X       -0.65242   0.00000   0.00000   0.00000   0.16492
    4 O1      .Y        0.00000  -0.65242   0.00000   0.16492   0.00000
    5 O1      .Z        0.00000   0.00000   0.20284   0.00000   0.00000
    6 O1      .S        0.00000   0.00000   4.85553   0.00000   0.00000
    7 O1      .X        1.05135   0.00000   0.00000   0.00000   0.01871
    8 O1      .Y        0.00000   1.05135   0.00000   0.01871   0.00000
    9 O1      .Z        0.00000   0.00000  -2.32567   0.00000   0.00000
   10 O1      .XX       0.00000   0.00000  -0.33719   0.00000   0.00000
   11 O1      .YY       0.00000   0.00000  -0.33719   0.00000   0.00000
   12 O1      .ZZ       0.00000   0.00000  -0.28412   0.00000   0.00000
   13 O1      .XY       0.00000   0.00000   0.00000   0.00000   0.00000
   14 O1      .XZ      -0.00312   0.00000   0.00000   0.00000   0.60416
   15 O1      .YZ       0.00000  -0.00312   0.00000   0.60416   0.00000
   16 O2      .S        0.00000   0.00000   0.07107   0.00000   0.00000
   17 O2      .S        0.00000   0.00000   1.27174   0.00000   0.00000
   18 O2      .X        0.65242   0.00000   0.00000   0.00000   0.16492
   19 O2      .Y        0.00000   0.65242   0.00000   0.16492   0.00000
   20 O2      .Z        0.00000   0.00000   0.20284   0.00000   0.00000
   21 O2      .S        0.00000   0.00000  -4.85553   0.00000   0.00000
   22 O2      .X       -1.05135   0.00000   0.00000   0.00000   0.01871
   23 O2      .Y        0.00000  -1.05135   0.00000   0.01871   0.00000
   24 O2      .Z        0.00000   0.00000  -2.32567   0.00000   0.00000
   25 O2      .XX       0.00000   0.00000   0.33719   0.00000   0.00000
   26 O2      .YY       0.00000   0.00000   0.33719   0.00000   0.00000
   27 O2      .ZZ       0.00000   0.00000   0.28412   0.00000   0.00000
   28 O2      .XY       0.00000   0.00000   0.00000   0.00000   0.00000
   29 O2      .XZ      -0.00312   0.00000   0.00000   0.00000  -0.60416
   30 O2      .YZ       0.00000  -0.00312   0.00000  -0.60416   0.00000
                          21        22        23        24        25
                           V         V         V         V         V    
     Eigenvalues --    42.70044  42.70044  53.45848  53.45848  66.25557
    1 O1      .S        0.00000   0.00000   0.00000   0.00000   0.04971
    2 O1      .S        0.00000  -0.00000   0.00000   0.00000   0.48644
    3 O1      .X        0.00000   0.00000   0.00000   0.00000   0.00000
    4 O1      .Y        0.00000   0.00000   0.00000   0.00000   0.00000
    5 O1      .Z        0.00000   0.00000   0.00000  -0.00000  -0.44896
    6 O1      .S        0.00000   0.00000   0.00000  -0.00000  -0.55405
    7 O1      .X        0.00000   0.00000   0.00000   0.00000   0.00000
    8 O1      .Y        0.00000   0.00000   0.00000   0.00000   0.00000
    9 O1      .Z        0.00000  -0.00000   0.00000   0.00000   0.45594
   10 O1      .XX       0.00000   0.57823   0.00000   0.65338   0.57813
   11 O1      .YY       0.00000  -0.57823   0.00000  -0.65338   0.57813
   12 O1      .ZZ       0.00000   0.00000   0.00000   0.00000  -0.53561
   13 O1      .XY       0.66768   0.00000   0.75446   0.00000   0.00000
   14 O1      .XZ       0.00000   0.00000   0.00000   0.00000   0.00000
   15 O1      .YZ       0.00000   0.00000   0.00000   0.00000   0.00000
   16 O2      .S        0.00000   0.00000   0.00000  -0.00000   0.04971
   17 O2      .S        0.00000  -0.00000   0.00000  -0.00000   0.48644
   18 O2      .X        0.00000   0.00000   0.00000   0.00000   0.00000
   19 O2      .Y        0.00000   0.00000   0.00000   0.00000   0.00000
   20 O2      .Z        0.00000  -0.00000   0.00000  -0.00000   0.44896
   21 O2      .S        0.00000   0.00000   0.00000   0.00000  -0.55405
   22 O2      .X        0.00000   0.00000   0.00000   0.00000   0.00000
   23 O2      .Y        0.00000   0.00000   0.00000   0.00000   0.00000
   24 O2      .Z        0.00000   0.00000   0.00000   0.00000  -0.45594
   25 O2      .XX       0.00000   0.57823   0.00000  -0.65338   0.57813
   26 O2      .YY       0.00000  -0.57823   0.00000   0.65338   0.57813
   27 O2      .ZZ       0.00000   0.00000   0.00000  -0.00000  -0.53561
   28 O2      .XY       0.66768   0.00000  -0.75446   0.00000   0.00000
   29 O2      .XZ       0.00000   0.00000   0.00000   0.00000   0.00000
   30 O2      .YZ       0.00000   0.00000   0.00000   0.00000   0.00000
                          26        27        28        29        30
                           V         V         V         V         V    
     Eigenvalues --    70.13929  70.13929  76.75958  87.02911  96.10872
    1 O1      .S        0.00000   0.00000  -0.03245  -0.28742  -0.34698
    2 O1      .S        0.00000   0.00000  -0.40356   0.52760  -0.01165
    3 O1      .X       -0.01351   0.00000   0.00000   0.00000   0.00000
    4 O1      .Y        0.00000  -0.01351   0.00000   0.00000   0.00000
    5 O1      .Z        0.00000   0.00000  -0.54938  -0.07447   0.19115
    6 O1      .S        0.00000   0.00000   3.34414   1.41389   4.09177
    7 O1      .X       -0.49618   0.00000   0.00000   0.00000   0.00000
    8 O1      .Y        0.00000  -0.49618   0.00000   0.00000   0.00000
    9 O1      .Z        0.00000   0.00000  -2.20093  -0.04530  -1.18329
   10 O1      .XX       0.00000   0.00000  -0.52484  -0.92934  -1.23570
   11 O1      .YY       0.00000   0.00000  -0.52484  -0.92934  -1.23570
   12 O1      .ZZ       0.00000   0.00000   1.43631  -0.86664  -1.02047
   13 O1      .XY       0.00000   0.00000   0.00000   0.00000   0.00000
   14 O1      .XZ       1.01560   0.00000   0.00000   0.00000   0.00000
   15 O1      .YZ       0.00000   1.01560   0.00000   0.00000   0.00000
   16 O2      .S        0.00000   0.00000   0.03245  -0.28742   0.34698
   17 O2      .S        0.00000   0.00000   0.40356   0.52760   0.01165
   18 O2      .X        0.01351   0.00000   0.00000   0.00000   0.00000
   19 O2      .Y        0.00000   0.01351   0.00000   0.00000   0.00000
   20 O2      .Z        0.00000   0.00000  -0.54938   0.07447   0.19115
   21 O2      .S        0.00000   0.00000  -3.34414   1.41389  -4.09177
   22 O2      .X        0.49618   0.00000   0.00000   0.00000   0.00000
   23 O2      .Y        0.00000   0.49618   0.00000   0.00000   0.00000
   24 O2      .Z        0.00000   0.00000  -2.20093   0.04530  -1.18329
   25 O2      .XX       0.00000   0.00000   0.52484  -0.92934   1.23570
   26 O2      .YY       0.00000   0.00000   0.52484  -0.92934   1.23570
   27 O2      .ZZ       0.00000   0.00000  -1.43631  -0.86664   1.02047
   28 O2      .XY       0.00000   0.00000   0.00000   0.00000   0.00000
   29 O2      .XZ       1.01560   0.00000   0.00000   0.00000   0.00000
   30 O2      .YZ       0.00000   1.01560   0.00000   0.00000   0.00000
