 Entering Gaussian System

 Standard orientation:



 -------------------------------------------------------
     1   8    0     0.000000     0.000000     0.607268
     2   8    0     0.000000     0.000000    -0.607268
 -------------------------------------------------------

 AO basis set (Overlap normalization):
 Atom  O1     Shell     1 S    6
   5.4846716600e+03   1.8310744300e-03
   8.2523494600e+02   1.3950172200e-02
   1.8804695800e+02   6.8445078100e-02
   5.2964500000e+01   2.3271433600e-01
   1.6897570400e+01   4.7019289800e-01
   5.7996353400e+00   3.5852085300e-01
 Atom  O1     Shell     2 SP   3
   1.5539616250e+01  -1.1077754950e-01   7.0874268230e-02
   3.5999335860e+00  -1.4802626270e-01   3.3975283910e-01
   1.0137617500e+00   1.1307670150e+00   7.2715857730e-01
 Atom  O1     Shell     3 SP   1
   2.7000582260e-01   1.0000000000e+00   1.0000000000e+00
 Atom  O1     Shell     4 D    1
   8.0000000000e-01   1.0000000000e+00
 Atom  O2     Shell     5 S    6
   5.4846716600e+03   1.8310744300e-03
   8.2523494600e+02   1.3950172200e-02
   1.8804695800e+02   6.8445078100e-02
   5.2964500000e+01   2.3271433600e-01
   1.6897570400e+01   4.7019289800e-01
   5.7996353400e+00   3.5852085300e-01
 Atom  O2     Shell     6 SP   3
   1.5539616250e+01  -1.1077754950e-01   7.0874268230e-02
   3.5999335860e+00  -1.4802626270e-01   3.3975283910e-01
   1.0137617500e+00   1.1307670150e+00   7.2715857730e-01
 Atom  O2     Shell     7 SP   1
   2.7000582260e-01   1.0000000000e+00   1.0000000000e+00
 Atom  O2     Shell     8 D    1
   8.0000000000e-01   1.0000000000e+00

 Alpha Molecular Orbital Coefficients:
                           1         2         3         4         5
                           O         O         O         O         O    
     Eigenvalues --  -521.57973-521.57973 -29.56088 -25.68096 -25.68096
    1 O1      .S        1.00881   0.00194   0.03576  -0.14434   0.02065
    2 O1      .S       -0.02084  -0.00148  -0.21271   0.50576  -0.04578
    3 O1      .X        0.00000   0.00000   0.00000   0.00000   0.00000
    4 O1      .Y        0.00000   0.00000  -0.00000  -0.00000   0.00000
    5 O1      .Z       -0.00297   0.00981   0.43238   0.27286   0.08646
    6 O1      .S       -0.02435  -0.00947   0.00214   0.62537  -0.13411
    7 O1      .X        0.00000   0.00000   0.00000   0.00000   0.00000
    8 O1      .Y        0.00000   0.00000  -0.00000  -0.00000   0.00000
    9 O1      .Z       -0.00651   0.01274   0.17008   0.10430   0.11454
   10 O1      .XX      -0.00853   0.00057   0.00545  -0.00095   0.00484
   11 O1      .YY      -0.00853   0.00057   0.00545  -0.00095   0.00484
   12 O1      .ZZ      -0.00834   0.00019  -0.04467  -0.02849   0.01560
   13 O1      .XY       0.00000  -0.00000   0.00000  -0.00000   0.00000
   14 O1      .XZ      -0.00000  -0.00000  -0.00000  -0.00000  -0.00000
   15 O1      .YZ      -0.00000   0.00000  -0.00000  -0.00000   0.00000
   16 O2      .S        0.00194   1.00881   0.03576   0.02065  -0.14434
   17 O2      .S       -0.00148  -0.02084  -0.21271  -0.04578   0.50576
   18 O2      .X       -0.00000   0.00000   0.00000  -0.00000  -0.00000
   19 O2      .Y       -0.00000  -0.00000  -0.00000  -0.00000  -0.00000
   20 O2      .Z       -0.00981   0.00297  -0.43238  -0.08646  -0.27286
   21 O2      .S       -0.00947  -0.02435   0.00214  -0.13411   0.62537
   22 O2      .X       -0.00000   0.00000  -0.00000  -0.00000   0.00000
   23 O2      .Y       -0.00000  -0.00000  -0.00000  -0.00000  -0.00000
   24 O2      .Z       -0.01274   0.00651  -0.17008  -0.11454  -0.10430
   25 O2      .XX       0.00057  -0.00853   0.00545   0.00484  -0.00095
   26 O2      .YY       0.00057  -0.00853   0.00545   0.00484  -0.00095
   27 O2      .ZZ       0.00019  -0.00834  -0.04467   0.01560  -0.02849
   28 O2      .XY       0.00000  -0.00000  -0.00000  -0.00000   0.00000
   29 O2      .XZ      -0.00000   0.00000  -0.00000  -0.00000  -0.00000
   30 O2      .YZ      -0.00000  -0.00000  -0.00000  -0.00000  -0.00000
                           6         7         8         9        10
                           O         O         O         O         V    
     Eigenvalues --   -11.70806 -11.70806 -11.70806 -11.70806   9.32640
    1 O1      .S        0.00000   0.00000  -0.00000  -0.00000   0.06097
    2 O1      .S        0.00000  -0.00000   0.00000  -0.00000  -0.52218
    3 O1      .X       -0.08084   0.72230  -0.00000  -0.00000  -0.00000
    4 O1      .Y        0.00000   0.00000  -0.08084   0.72230  -0.00000
    5 O1      .Z       -0.00000  -0.00000   0.00000   0.00000   0.71076
    6 O1      .S        0.00000   0.00000   0.00000   0.00000   0.40263
    7 O1      .X       -0.05147   0.44429   0.00000  -0.00000   0.00000
    8 O1      .Y        0.00000   0.00000  -0.05147   0.44429   0.00000
    9 O1      .Z       -0.00000  -0.00000  -0.00000  -0.00000   0.08855
   10 O1      .XX      -0.00000  -0.00000   0.00000  -0.00000  -0.06162
   11 O1      .YY       0.00000  -0.00000  -0.00000  -0.00000  -0.06162
   12 O1      .ZZ       0.00000   0.00000   0.00000  -0.00000  -0.14362
   13 O1      .XY      -0.00000  -0.00000  -0.00000  -0.00000  -0.00000
   14 O1      .XZ       0.00621  -0.02489  -0.00000  -0.00000   0.00000
   15 O1      .YZ      -0.00000  -0.00000   0.00621  -0.02489   0.00000
   16 O2      .S       -0.00000  -0.00000   0.00000   0.00000  -0.06097
   17 O2      .S       -0.00000   0.00000   0.00000   0.00000   0.52218
   18 O2      .X        0.72230  -0.08084  -0.00000  -0.00000   0.00000
   19 O2      .Y       -0.00000  -0.00000   0.72230  -0.08084   0.00000
   20 O2      .Z        0.00000   0.00000  -0.00000   0.00000   0.71076
   21 O2      .S       -0.00000  -0.00000  -0.00000  -0.00000  -0.40263
   22 O2      .X        0.44429  -0.05147   0.00000  -0.00000  -0.00000
   23 O2      .Y        0.00000  -0.00000   0.44429  -0.05147  -0.00000
   24 O2      .Z       -0.00000  -0.00000  -0.00000  -0.00000   0.08855
   25 O2      .XX       0.00000   0.00000   0.00000   0.00000   0.06162
   26 O2      .YY       0.00000   0.00000   0.00000   0.00000   0.06162
   27 O2      .ZZ      -0.00000   0.00000  -0.00000   0.00000   0.14362
   28 O2      .XY       0.00000   0.00000  -0.00000   0.00000  -0.00000
   29 O2      .XZ       0.02489  -0.00621   0.00000  -0.00000  -0.00000
   30 O2      .YZ       0.00000   0.00000   0.02489  -0.00621  -0.00000
                          11        12        13        14        15
                           V         V         V         V         V    
     Eigenvalues --    22.37656  22.37656  28.94730  28.94730  33.13515
    1 O1      .S        0.04288  -0.01056  -0.15170   0.11239   0.00000
    2 O1      .S        0.14752  -1.20899  -0.92006   0.02169  -0.00000
    3 O1      .X       -0.00000   0.00000  -0.00000   0.00000  -0.00000
    4 O1      .Y       -0.00000   0.00000   0.00000   0.00000  -0.01832
    5 O1      .Z       -0.00260  -0.57092   0.56799   0.07549  -0.00000
    6 O1      .S       -0.96190   2.49967   3.97287  -2.91544   0.00000
    7 O1      .X        0.00000  -0.00000   0.00000  -0.00000   0.00000
    8 O1      .Y        0.00000  -0.00000  -0.00000  -0.00000  -0.01768
    9 O1      .Z        0.55011   0.13561  -2.40095   1.39433  -0.00000
   10 O1      .XX       0.09051  -0.29908  -0.48263   0.22425  -0.00000
   11 O1      .YY       0.09051  -0.29908  -0.48263   0.22425   0.00000
   12 O1      .ZZ       0.08565  -0.29963  -0.60418   0.27652   0.00000
   13 O1      .XY       0.00000   0.00000  -0.00000  -0.00000  -0.00000
   14 O1      .XZ      -0.00000  -0.00000   0.00000  -0.00000   0.00000
   15 O1      .YZ      -0.00000  -0.00000   0.00000  -0.00000  -0.17182
   16 O2      .S       -0.01056   0.04288   0.11239  -0.15170   0.00000
   17 O2      .S       -1.20899   0.14752   0.02169  -0.92006  -0.00000
   18 O2      .X        0.00000  -0.00000   0.00000  -0.00000   0.00000
   19 O2      .Y        0.00000   0.00000   0.00000  -0.00000  -0.69789
   20 O2      .Z        0.57092   0.00260  -0.07549  -0.56799   0.00000
   21 O2      .S        2.49967  -0.96190  -2.91544   3.97287  -0.00000
   22 O2      .X       -0.00000   0.00000  -0.00000   0.00000  -0.00000
   23 O2      .Y       -0.00000   0.00000  -0.00000   0.00000   0.79596
   24 O2      .Z       -0.13561  -0.55011  -1.39433   2.40095  -0.00000
   25 O2      .XX      -0.29908   0.09051   0.22425  -0.48263   0.00000
   26 O2      .YY      -0.29908   0.09051   0.22425  -0.48263   0.00000
   27 O2      .ZZ      -0.29963   0.08565   0.27652  -0.60418  -0.00000
   28 O2      .XY       0.00000  -0.00000   0.00000   0.00000   0.00000
   29 O2      .XZ       0.00000  -0.00000   0.00000   0.00000  -0.00000
   30 O2      .YZ       0.00000   0.00000  -0.00000   0.00000  -0.68900
                          16        17        18        19        20
                           V         V         V         V         V    
     Eigenvalues --    33.13515  33.13515  33.13515  44.24126  44.24126
    1 O1      .S        0.00000   0.00000  -0.00000  -0.00000  -0.00000
    2 O1      .S       -0.00000  -0.00000   0.00000   0.00000   0.00000
    3 O1      .X        0.00000  -0.69789  -0.01832  -0.06462   0.58080
    4 O1      .Y       -0.69789   0.00000  -0.00000  -0.00000   0.00000
    5 O1      .Z       -0.00000  -0.00000   0.00000   0.00000   0.00000
    6 O1      .S        0.00000  -0.00000  -0.00000   0.00000  -0.00000
    7 O1      .X       -0.00000   0.79596  -0.01768  -0.52135  -0.95227
    8 O1      .Y        0.79596  -0.00000   0.00000   0.00000  -0.00000
    9 O1      .Z       -0.00000   0.00000  -0.00000   0.00000   0.00000
   10 O1      .XX       0.00000   0.00000   0.00000  -0.00000   0.00000
   11 O1      .YY       0.00000   0.00000  -0.00000  -0.00000   0.00000
   12 O1      .ZZ       0.00000   0.00000  -0.00000  -0.00000  -0.00000
   13 O1      .XY      -0.00000   0.00000   0.00000  -0.00000   0.00000
   14 O1      .XZ       0.00000   0.68900  -0.17182   0.22942   0.91993
   15 O1      .YZ       0.68900   0.00000   0.00000  -0.00000  -0.00000
   16 O2      .S       -0.00000  -0.00000  -0.00000  -0.00000  -0.00000
   17 O2      .S       -0.00000  -0.00000  -0.00000  -0.00000  -0.00000
   18 O2      .X        0.00000  -0.01832  -0.69789  -0.58080   0.06462
   19 O2      .Y       -0.01832   0.00000   0.00000  -0.00000   0.00000
   20 O2      .Z       -0.00000  -0.00000   0.00000   0.00000   0.00000
   21 O2      .S        0.00000   0.00000   0.00000   0.00000   0.00000
   22 O2      .X       -0.00000  -0.01768   0.79596   0.95227   0.52135
   23 O2      .Y       -0.01768  -0.00000  -0.00000  -0.00000  -0.00000
   24 O2      .Z       -0.00000   0.00000   0.00000   0.00000   0.00000
   25 O2      .XX       0.00000  -0.00000  -0.00000  -0.00000  -0.00000
   26 O2      .YY      -0.00000   0.00000  -0.00000  -0.00000  -0.00000
   27 O2      .ZZ      -0.00000  -0.00000  -0.00000   0.00000  -0.00000
   28 O2      .XY      -0.00000  -0.00000   0.00000   0.00000  -0.00000
   29 O2      .XZ       0.00000   0.17182  -0.68900   0.91993   0.22942
   30 O2      .YZ       0.17182   0.00000  -0.00000  -0.00000  -0.00000
                          21        22        23        24        25
                           V         V         V         V         V    
     Eigenvalues --    44.2412627211.395227211.395227211.395227211.3952
    1 O1      .S        0.00000  -0.00000   0.00000  -0.00000  -0.00000
    2 O1      .S        0.00000   0.00000  -0.00000  -0.00000   0.00000
    3 O1      .X        0.00000   0.00000   0.00000   0.00000  -0.00000
    4 O1      .Y        0.58080  -0.06462  -0.00000  -0.00000   0.00000
    5 O1      .Z       -0.00000   0.00000  -0.00000   0.00000   0.00000
    6 O1      .S       -0.00000   0.00000   0.00000   0.00000  -0.00000
    7 O1      .X       -0.00000  -0.00000  -0.00000   0.00000   0.00000
    8 O1      .Y       -0.95227  -0.52135  -0.00000   0.00000  -0.00000
    9 O1      .Z        0.00000  -0.00000  -0.00000  -0.00000   0.00000
   10 O1      .XX       0.00000  -0.00000  -0.00000  -0.00000  -0.05314
   11 O1      .YY       0.00000  -0.00000   0.00000  -0.00000   0.05314
   12 O1      .ZZ       0.00000  -0.00000   0.00000   0.00000  -0.00000
   13 O1      .XY       0.00000   0.00000  -0.06137   1.00560   0.00000
   14 O1      .XZ      -0.00000   0.00000   0.00000  -0.00000   0.00000
   15 O1      .YZ       0.91993   0.22942   0.00000  -0.00000  -0.00000
   16 O2      .S        0.00000   0.00000   0.00000   0.00000  -0.00000
   17 O2      .S       -0.00000   0.00000   0.00000   0.00000   0.00000
   18 O2      .X       -0.00000  -0.00000   0.00000   0.00000   0.00000
   19 O2      .Y        0.06462  -0.58080   0.00000  -0.00000  -0.00000
   20 O2      .Z        0.00000   0.00000  -0.00000  -0.00000  -0.00000
   21 O2      .S        0.00000  -0.00000  -0.00000  -0.00000   0.00000
   22 O2      .X       -0.00000   0.00000   0.00000  -0.00000  -0.00000
   23 O2      .Y        0.52135   0.95227   0.00000  -0.00000   0.00000
   24 O2      .Z        0.00000   0.00000  -0.00000  -0.00000   0.00000
   25 O2      .XX       0.00000   0.00000   0.00000  -0.00000   0.87088
   26 O2      .YY      -0.00000  -0.00000   0.00000   0.00000  -0.87088
   27 O2      .ZZ      -0.00000   0.00000   0.00000   0.00000   0.00000
   28 O2      .XY      -0.00000  -0.00000   1.00560  -0.06137  -0.00000
   29 O2      .XZ       0.00000   0.00000   0.00000  -0.00000  -0.00000
   30 O2      .YZ       0.22942   0.91993   0.00000  -0.00000  -0.00000
                          26        27        28        29        30
                           V         V         V         V         V    
     Eigenvalues --  27211.395227211.395227211.395227211.395227211.3952
    1 O1      .S       -0.00000  -0.11469   0.05756   0.00393   0.40387
    2 O1      .S        0.00000  -0.58706  -0.01054  -0.09097  -0.53135
    3 O1      .X        0.00000   0.00000   0.00000   0.00000   0.00000
    4 O1      .Y        0.00000   0.00000  -0.00000  -0.00000   0.00000
    5 O1      .Z        0.00000   0.01042   0.50400   0.19399  -0.06523
    6 O1      .S        0.00000   3.53346  -2.90033   0.03608  -2.21081
    7 O1      .X       -0.00000  -0.00000   0.00000  -0.00000  -0.00000
    8 O1      .Y       -0.00000  -0.00000   0.00000   0.00000  -0.00000
    9 O1      .Z        0.00000  -2.15029   1.69994   0.27508  -0.23926
   10 O1      .XX       0.87088  -0.96531   0.20451   0.00852   1.35372
   11 O1      .YY      -0.87088  -0.96531   0.20451   0.00852   1.35372
   12 O1      .ZZ      -0.00000   1.23495  -0.38692  -0.25628   1.49012
   13 O1      .XY       0.00000  -0.00000  -0.00000   0.00000   0.00000
   14 O1      .XZ       0.00000   0.00000  -0.00000   0.00000  -0.00000
   15 O1      .YZ       0.00000   0.00000   0.00000   0.00000  -0.00000
   16 O2      .S        0.00000   0.05756  -0.11469   0.40387   0.00393
   17 O2      .S        0.00000  -0.01054  -0.58706  -0.53135  -0.09097
   18 O2      .X       -0.00000  -0.00000   0.00000  -0.00000  -0.00000
   19 O2      .Y       -0.00000   0.00000   0.00000   0.00000  -0.00000
   20 O2      .Z        0.00000  -0.50400  -0.01042   0.06523  -0.19399
   21 O2      .S       -0.00000  -2.90033   3.53346  -2.21081   0.03608
   22 O2      .X        0.00000   0.00000  -0.00000   0.00000   0.00000
   23 O2      .Y        0.00000  -0.00000  -0.00000  -0.00000   0.00000
   24 O2      .Z        0.00000  -1.69994   2.15029   0.23926  -0.27508
   25 O2      .XX      -0.05314   0.20451  -0.96531   1.35372   0.00852
   26 O2      .YY       0.05314   0.20451  -0.96531   1.35372   0.00852
   27 O2      .ZZ       0.00000  -0.38692   1.23495   1.49012  -0.25628
   28 O2      .XY       0.00000   0.00000   0.00000  -0.00000  -0.00000
   29 O2      .XZ       0.00000   0.00000  -0.00000  -0.00000   0.00000
   30 O2      .YZ      -0.00000  -0.00000  -0.00000  -0.00000   0.00000

 Beta Molecular Orbital Coefficients:
                           1         2         3         4         5
                           O         O         O         O         O    
     Eigenvalues --  -520.85003-520.85003 -29.47763 -23.10395 -23.10395
    1 O1      .S        0.00194   1.00880   0.03764   0.02056  -0.14223
    2 O1      .S       -0.00148  -0.02084  -0.21436  -0.03740   0.47241
    3 O1      .X        0.00000  -0.00000  -0.00000   0.00000  -0.00000
    4 O1      .Y        0.00000  -0.00000  -0.00000   0.00000  -0.00000
    5 O1      .Z        0.00981  -0.00296   0.41938   0.08537   0.28558
    6 O1      .S       -0.00947  -0.02434  -0.00943  -0.16724   0.67759
    7 O1      .X       -0.00000  -0.00000  -0.00000  -0.00000  -0.00000
    8 O1      .Y        0.00000  -0.00000  -0.00000   0.00000  -0.00000
    9 O1      .Z        0.01274  -0.00651   0.17109   0.13278   0.10463
   10 O1      .XX       0.00057  -0.00853   0.00591   0.00821  -0.01223
   11 O1      .YY       0.00057  -0.00853   0.00591   0.00821  -0.01223
   12 O1      .ZZ       0.00019  -0.00834  -0.05022   0.01279  -0.01850
   13 O1      .XY      -0.00000   0.00000   0.00000   0.00000  -0.00000
   14 O1      .XZ       0.00000   0.00000  -0.00000   0.00000  -0.00000
   15 O1      .YZ       0.00000   0.00000  -0.00000   0.00000  -0.00000
   16 O2      .S        1.00880   0.00194   0.03764  -0.14223   0.02056
   17 O2      .S       -0.02084  -0.00148  -0.21436   0.47241  -0.03740
   18 O2      .X        0.00000  -0.00000  -0.00000  -0.00000   0.00000
   19 O2      .Y        0.00000  -0.00000  -0.00000  -0.00000   0.00000
   20 O2      .Z        0.00296  -0.00981  -0.41938  -0.28558  -0.08537
   21 O2      .S       -0.02434  -0.00947  -0.00943   0.67759  -0.16724
   22 O2      .X        0.00000  -0.00000  -0.00000   0.00000   0.00000
   23 O2      .Y        0.00000  -0.00000  -0.00000  -0.00000   0.00000
   24 O2      .Z        0.00651  -0.01274  -0.17109  -0.10463  -0.13278
   25 O2      .XX      -0.00853   0.00057   0.00591  -0.01223   0.00821
   26 O2      .YY      -0.00853   0.00057   0.00591  -0.01223   0.00821
   27 O2      .ZZ      -0.00834   0.00019  -0.05022  -0.01850   0.01279
   28 O2      .XY      -0.00000   0.00000  -0.00000   0.00000  -0.00000
   29 O2      .XZ       0.00000  -0.00000  -0.00000   0.00000   0.00000
   30 O2      .YZ       0.00000  -0.00000  -0.00000  -0.00000   0.00000
                           6         7         8         9        10
                           O         O         V         V         V    
     Eigenvalues --   -12.43424 -12.43424  -2.53680  -2.53680  10.67822
    1 O1      .S        0.00000   0.00000  -0.00000  -0.00000   0.06516
    2 O1      .S       -0.00000  -0.00000  -0.00000  -0.00000  -0.52603
    3 O1      .X        0.44379   0.00000   0.56111   0.00000  -0.00000
    4 O1      .Y       -0.00000   0.44379  -0.00000   0.56111  -0.00000
    5 O1      .Z        0.00000   0.00000   0.00000   0.00000   0.70743
    6 O1      .S        0.00000   0.00000   0.00000   0.00000   0.33649
    7 O1      .X        0.28039   0.00000   0.38104   0.00000  -0.00000
    8 O1      .Y       -0.00000   0.28039  -0.00000   0.38104  -0.00000
    9 O1      .Z       -0.00000  -0.00000  -0.00000  -0.00000   0.12216
   10 O1      .XX      -0.00000  -0.00000  -0.00000  -0.00000  -0.05727
   11 O1      .YY      -0.00000  -0.00000  -0.00000  -0.00000  -0.05727
   12 O1      .ZZ       0.00000   0.00000  -0.00000   0.00000  -0.15106
   13 O1      .XY      -0.00000   0.00000  -0.00000   0.00000  -0.00000
   14 O1      .XZ      -0.03782  -0.00000  -0.06295  -0.00000   0.00000
   15 O1      .YZ      -0.00000  -0.03782  -0.00000  -0.06295   0.00000
   16 O2      .S        0.00000  -0.00000   0.00000   0.00000  -0.06516
   17 O2      .S        0.00000   0.00000   0.00000   0.00000   0.52603
   18 O2      .X        0.44379   0.00000  -0.56111  -0.00000  -0.00000
   19 O2      .Y       -0.00000   0.44379   0.00000  -0.56111   0.00000
   20 O2      .Z       -0.00000  -0.00000   0.00000   0.00000   0.70743
   21 O2      .S       -0.00000  -0.00000  -0.00000  -0.00000  -0.33649
   22 O2      .X        0.28039   0.00000  -0.38104  -0.00000   0.00000
   23 O2      .Y       -0.00000   0.28039   0.00000  -0.38104   0.00000
   24 O2      .Z       -0.00000  -0.00000  -0.00000  -0.00000   0.12216
   25 O2      .XX       0.00000   0.00000   0.00000   0.00000   0.05727
   26 O2      .YY       0.00000   0.00000   0.00000   0.00000   0.05727
   27 O2      .ZZ      -0.00000  -0.00000   0.00000  -0.00000   0.15106
   28 O2      .XY      -0.00000  -0.00000   0.00000   0.00000   0.00000
   29 O2      .XZ       0.03782   0.00000  -0.06295  -0.00000   0.00000
   30 O2      .YZ       0.00000   0.03782   0.00000  -0.06295   0.00000
                          11        12        13        14        15
                           V         V         V         V         V    
     Eigenvalues --    22.67902  22.67902  24.35168  24.35168  24.35168
    1 O1      .S        0.01159   0.02219  -0.00000   0.00000  -0.00000
    2 O1      .S       -1.02605   0.14366  -0.00000   0.00000  -0.00000
    3 O1      .X        0.00000  -0.00000  -0.91397  -0.00000   0.00000
    4 O1      .Y        0.00000  -0.00000  -0.00000  -0.05253  -0.91397
    5 O1      .Z       -0.66334  -0.02440  -0.00000  -0.00000   0.00000
    6 O1      .S        1.78052  -0.42170   0.00000  -0.00000   0.00000
    7 O1      .X       -0.00000   0.00000   1.20301   0.00000  -0.00000
    8 O1      .Y       -0.00000   0.00000   0.00000  -0.32563   1.20301
    9 O1      .Z        0.56535   0.28187  -0.00000   0.00000  -0.00000
   10 O1      .XX      -0.22668   0.04873  -0.00000   0.00000  -0.00000
   11 O1      .YY      -0.22668   0.04873  -0.00000   0.00000  -0.00000
   12 O1      .ZZ      -0.22847   0.04482  -0.00000   0.00000  -0.00000
   13 O1      .XY       0.00000   0.00000  -0.00000  -0.00000  -0.00000
   14 O1      .XZ       0.00000  -0.00000   0.00173  -0.00000   0.00000
   15 O1      .YZ       0.00000  -0.00000  -0.00000  -0.00043   0.00173
   16 O2      .S        0.02219   0.01159   0.00000  -0.00000   0.00000
   17 O2      .S        0.14366  -1.02605   0.00000  -0.00000   0.00000
   18 O2      .X       -0.00000   0.00000  -0.05253   0.00000   0.00000
   19 O2      .Y       -0.00000   0.00000   0.00000  -0.91397  -0.05253
   20 O2      .Z        0.02440   0.66334  -0.00000   0.00000  -0.00000
   21 O2      .S       -0.42170   1.78052  -0.00000   0.00000  -0.00000
   22 O2      .X        0.00000  -0.00000  -0.32563  -0.00000  -0.00000
   23 O2      .Y        0.00000  -0.00000  -0.00000   1.20301  -0.32563
   24 O2      .Z       -0.28187  -0.56535  -0.00000  -0.00000  -0.00000
   25 O2      .XX       0.04873  -0.22668   0.00000  -0.00000   0.00000
   26 O2      .YY       0.04873  -0.22668   0.00000  -0.00000   0.00000
   27 O2      .ZZ       0.04482  -0.22847   0.00000  -0.00000   0.00000
   28 O2      .XY      -0.00000  -0.00000  -0.00000   0.00000   0.00000
   29 O2      .XZ      -0.00000   0.00000   0.00043  -0.00000   0.00000
   30 O2      .YZ      -0.00000   0.00000  -0.00000  -0.00173   0.00043
                          16        17        18        19        20
                           V         V         V         V         V    
     Eigenvalues --    24.35168  29.25795  29.25795  48.07946  48.07946
    1 O1      .S        0.00000  -0.13528   0.12265   0.00000  -0.00000
    2 O1      .S        0.00000  -1.19474   0.04125  -0.00000   0.00000
    3 O1      .X       -0.05253   0.00000   0.00000  -0.00000  -0.00000
    4 O1      .Y       -0.00000   0.00000   0.00000   0.00000  -0.00000
    5 O1      .Z       -0.00000   0.46109   0.12863  -0.00000   0.00000
    6 O1      .S       -0.00000   4.49491  -3.27386  -0.00000   0.00000
    7 O1      .X       -0.32563  -0.00000  -0.00000   0.00000   0.00000
    8 O1      .Y        0.00000  -0.00000   0.00000  -0.00000   0.00000
    9 O1      .Z        0.00000  -2.52949   1.62641   0.00000  -0.00000
   10 O1      .XX       0.00000  -0.52453   0.25388   0.00000  -0.00000
   11 O1      .YY       0.00000  -0.52453   0.25388   0.00000  -0.00000
   12 O1      .ZZ       0.00000  -0.44330   0.23619  -0.00000  -0.00000
   13 O1      .XY      -0.00000   0.00000   0.00000  -0.06137   1.00560
   14 O1      .XZ      -0.00043   0.00000   0.00000  -0.00000  -0.00000
   15 O1      .YZ       0.00000   0.00000  -0.00000  -0.00000  -0.00000
   16 O2      .S       -0.00000   0.12265  -0.13528   0.00000  -0.00000
   17 O2      .S       -0.00000   0.04125  -1.19474  -0.00000   0.00000
   18 O2      .X       -0.91397  -0.00000   0.00000   0.00000  -0.00000
   19 O2      .Y       -0.00000   0.00000  -0.00000   0.00000  -0.00000
   20 O2      .Z       -0.00000  -0.12863  -0.46109   0.00000  -0.00000
   21 O2      .S        0.00000  -3.27386   4.49491   0.00000  -0.00000
   22 O2      .X        1.20301   0.00000  -0.00000  -0.00000  -0.00000
   23 O2      .Y        0.00000   0.00000   0.00000  -0.00000   0.00000
   24 O2      .Z        0.00000  -1.62641   2.52949   0.00000  -0.00000
   25 O2      .XX      -0.00000   0.25388  -0.52453   0.00000  -0.00000
   26 O2      .YY      -0.00000   0.25388  -0.52453  -0.00000  -0.00000
   27 O2      .ZZ      -0.00000   0.23619  -0.44330   0.00000  -0.00000
   28 O2      .XY       0.00000  -0.00000  -0.00000   1.00560  -0.06137
   29 O2      .XZ      -0.00173   0.00000   0.00000  -0.00000   0.00000
   30 O2      .YZ       0.00000  -0.00000   0.00000  -0.00000  -0.00000
                          21        22        23        24        25
                           V         V         V         V         V    
     Eigenvalues --    48.07946  48.07946  55.4296627211.395227211.3952
    1 O1      .S       -0.00000  -0.00000  -0.00000  -0.00000   0.00000
    2 O1      .S       -0.00000  -0.00000   0.00000   0.00000   0.00000
    3 O1      .X        0.00000  -0.00000   0.07642  -0.03749  -0.00000
    4 O1      .Y       -0.00000  -0.00000   0.00000   0.00000   0.07642
    5 O1      .Z        0.00000  -0.00000   0.00000  -0.00000  -0.00000
    6 O1      .S        0.00000   0.00000   0.00000   0.00000  -0.00000
    7 O1      .X       -0.00000   0.00000  -0.26792  -0.40456   0.00000
    8 O1      .Y       -0.00000   0.00000  -0.00000  -0.00000  -0.26792
    9 O1      .Z       -0.00000  -0.00000  -0.00000   0.00000   0.00000
   10 O1      .XX      -0.05314   0.87088  -0.00000  -0.00000   0.00000
   11 O1      .YY       0.05314  -0.87088  -0.00000  -0.00000   0.00000
   12 O1      .ZZ      -0.00000  -0.00000   0.00000  -0.00000   0.00000
   13 O1      .XY       0.00000   0.00000   0.00000  -0.00000   0.00000
   14 O1      .XZ       0.00000  -0.00000   1.14740   0.28614  -0.00000
   15 O1      .YZ       0.00000   0.00000   0.00000  -0.00000   1.14740
   16 O2      .S       -0.00000   0.00000  -0.00000   0.00000  -0.00000
   17 O2      .S        0.00000   0.00000  -0.00000   0.00000  -0.00000
   18 O2      .X        0.00000  -0.00000   0.03749  -0.07642   0.00000
   19 O2      .Y        0.00000   0.00000  -0.00000  -0.00000   0.03749
   20 O2      .Z       -0.00000  -0.00000   0.00000  -0.00000   0.00000
   21 O2      .S       -0.00000  -0.00000   0.00000  -0.00000   0.00000
   22 O2      .X       -0.00000   0.00000   0.40456   0.26792  -0.00000
   23 O2      .Y       -0.00000  -0.00000   0.00000   0.00000   0.40456
   24 O2      .Z       -0.00000  -0.00000  -0.00000  -0.00000   0.00000
   25 O2      .XX       0.87088  -0.05314  -0.00000   0.00000  -0.00000
   26 O2      .YY      -0.87088   0.05314   0.00000   0.00000  -0.00000
   27 O2      .ZZ       0.00000  -0.00000  -0.00000   0.00000  -0.00000
   28 O2      .XY      -0.00000  -0.00000  -0.00000   0.00000   0.00000
   29 O2      .XZ       0.00000  -0.00000   0.28614   1.14740  -0.00000
   30 O2      .YZ       0.00000   0.00000  -0.00000   0.00000   0.28614
                          26        27        28        29        30
                           V         V         V         V         V    
     Eigenvalues --  27211.395227211.395227211.395227211.395227211.3952
    1 O1      .S        0.00000  -0.04687   0.10035  -0.00325   0.41339
    2 O1      .S       -0.00000   0.01131   0.50310  -0.09038  -0.48004
    3 O1      .X       -0.00000   0.00000   0.00000   0.00000  -0.00000
    4 O1      .Y       -0.03749  -0.00000   0.00000   0.00000  -0.00000
    5 O1      .Z       -0.00000  -0.49269   0.03444   0.18686  -0.10273
    6 O1      .S        0.00000   2.62738  -3.15816   0.22252  -2.45296
    7 O1      .X        0.00000  -0.00000  -0.00000  -0.00000   0.00000
    8 O1      .Y       -0.40456  -0.00000   0.00000  -0.00000   0.00000
    9 O1      .Z       -0.00000  -1.56558   1.93137   0.18488  -0.07861
   10 O1      .XX      -0.00000  -0.18364   0.92239  -0.00560   1.38187
   11 O1      .YY      -0.00000  -0.18364   0.92239  -0.00560   1.38187
   12 O1      .ZZ       0.00000   0.40905  -1.27915  -0.27196   1.52098
   13 O1      .XY       0.00000   0.00000   0.00000   0.00000   0.00000
   14 O1      .XZ       0.00000   0.00000   0.00000   0.00000   0.00000
   15 O1      .YZ       0.28614   0.00000  -0.00000   0.00000  -0.00000
   16 O2      .S        0.00000   0.10035  -0.04687   0.41339  -0.00325
   17 O2      .S        0.00000   0.50310   0.01131  -0.48004  -0.09038
   18 O2      .X        0.00000   0.00000  -0.00000  -0.00000   0.00000
   19 O2      .Y       -0.07642   0.00000  -0.00000  -0.00000   0.00000
   20 O2      .Z       -0.00000  -0.03444   0.49269   0.10273  -0.18686
   21 O2      .S       -0.00000  -3.15816   2.62738  -2.45296   0.22252
   22 O2      .X       -0.00000  -0.00000   0.00000   0.00000  -0.00000
   23 O2      .Y        0.26792  -0.00000  -0.00000   0.00000  -0.00000
   24 O2      .Z       -0.00000  -1.93137   1.56558   0.07861  -0.18488
   25 O2      .XX      -0.00000   0.92239  -0.18364   1.38187  -0.00560
   26 O2      .YY       0.00000   0.92239  -0.18364   1.38187  -0.00560
   27 O2      .ZZ      -0.00000  -1.27915   0.40905   1.52098  -0.27196
   28 O2      .XY       0.00000  -0.00000  -0.00000  -0.00000   0.00000
   29 O2      .XZ       0.00000   0.00000   0.00000   0.00000   0.00000
   30 O2      .YZ       1.14740   0.00000   0.00000   0.00000  -0.00000
