 Entering Gaussian System

 Standard orientation:



 -------------------------------------------------------
     1  15    0     0.000000     0.000000     0.000000
     2  17    0     2.070228     0.000000     0.000000
     3  17    0    -1.035114     1.792870     0.000000
     4  17    0    -1.035114    -1.792870     0.000000
     5  17    0     0.000000     0.000000     2.176807
     6  17    0     0.000000     0.000000    -2.176807
 -------------------------------------------------------

 AO basis set (Overlap normalization):
 Atom  P1     Shell     1 S    6
   1.9413300000e+04   1.8515989230e-03
   2.9094200000e+03   1.4206191740e-02
   6.6136400000e+02   6.9999459280e-02
   1.8575900000e+02   2.4007886030e-01
   5.9194300000e+01   4.8476171800e-01
   2.0031000000e+01   3.3519980500e-01
 Atom  P1     Shell     2 SP   6
   3.3947800000e+02  -2.7821701050e-03   4.5646161910e-03
   8.1010100000e+01  -3.6049901350e-02   3.3693571880e-02
   2.5878000000e+01  -1.1663100440e-01   1.3975488340e-01
   9.4522100000e+00   9.6832803640e-02   3.3936171680e-01
   3.6656600000e+00   6.1441802310e-01   4.5092062370e-01
   1.4674600000e+00   4.0379801520e-01   2.3858580090e-01
 Atom  P1     Shell     3 SP   3
   2.1562300000e+00  -2.5292411390e-01  -1.7765312730e-02
   7.4899700000e-01   3.2851844680e-02   2.7405819640e-01
   2.8314500000e-01   1.0812547620e+00   7.8542156300e-01
 Atom  P1     Shell     4 SP   1
   9.9831700000e-02   1.0000000000e+00   1.0000000000e+00
 Atom  P1     Shell     5 D    1
   5.5000000000e-01   1.0000000000e+00
 Atom Cl2     Shell     6 S    6
   2.5180100000e+04   1.8329598480e-03
   3.7803500000e+03   1.4034198830e-02
   8.6047400000e+02   6.9097394260e-02
   2.4214500000e+02   2.3745198030e-01
   7.7334900000e+01   4.8303395990e-01
   2.6247000000e+01   3.3985597180e-01
 Atom Cl2     Shell     7 SP   6
   4.9176500000e+02  -2.2973914170e-03   3.9894008790e-03
   1.1698400000e+02  -3.0713718940e-02   3.0317706680e-02
   3.7415300000e+01  -1.1252806940e-01   1.2988002860e-01
   1.3783400000e+01   4.5016327760e-02   3.2795107230e-01
   5.4521500000e+00   5.8935336340e-01   4.5352710000e-01
   2.2258800000e+00   4.6520628680e-01   2.5215405560e-01
 Atom Cl2     Shell     8 SP   3
   3.1864900000e+00  -2.5182802800e-01  -1.4299314720e-02
   1.1442700000e+00   6.1589251410e-02   3.2357233310e-01
   4.2037700000e-01   1.0601843280e+00   7.4350776530e-01
 Atom Cl2     Shell     9 SP   1
   1.4265700000e-01   1.0000000000e+00   1.0000000000e+00
 Atom Cl2     Shell    10 D    1
   7.5000000000e-01   1.0000000000e+00
 Atom Cl3     Shell    11 S    6
   2.5180100000e+04   1.8329598480e-03
   3.7803500000e+03   1.4034198830e-02
   8.6047400000e+02   6.9097394260e-02
   2.4214500000e+02   2.3745198030e-01
   7.7334900000e+01   4.8303395990e-01
   2.6247000000e+01   3.3985597180e-01
 Atom Cl3     Shell    12 SP   6
   4.9176500000e+02  -2.2973914170e-03   3.9894008790e-03
   1.1698400000e+02  -3.0713718940e-02   3.0317706680e-02
   3.7415300000e+01  -1.1252806940e-01   1.2988002860e-01
   1.3783400000e+01   4.5016327760e-02   3.2795107230e-01
   5.4521500000e+00   5.8935336340e-01   4.5352710000e-01
   2.2258800000e+00   4.6520628680e-01   2.5215405560e-01
 Atom Cl3     Shell    13 SP   3
   3.1864900000e+00  -2.5182802800e-01  -1.4299314720e-02
   1.1442700000e+00   6.1589251410e-02   3.2357233310e-01
   4.2037700000e-01   1.0601843280e+00   7.4350776530e-01
 Atom Cl3     Shell    14 SP   1
   1.4265700000e-01   1.0000000000e+00   1.0000000000e+00
 Atom Cl3     Shell    15 D    1
   7.5000000000e-01   1.0000000000e+00
 Atom Cl4     Shell    16 S    6
   2.5180100000e+04   1.8329598480e-03
   3.7803500000e+03   1.4034198830e-02
   8.6047400000e+02   6.9097394260e-02
   2.4214500000e+02   2.3745198030e-01
   7.7334900000e+01   4.8303395990e-01
   2.6247000000e+01   3.3985597180e-01
 Atom Cl4     Shell    17 SP   6
   4.9176500000e+02  -2.2973914170e-03   3.9894008790e-03
   1.1698400000e+02  -3.0713718940e-02   3.0317706680e-02
   3.7415300000e+01  -1.1252806940e-01   1.2988002860e-01
   1.3783400000e+01   4.5016327760e-02   3.2795107230e-01
   5.4521500000e+00   5.8935336340e-01   4.5352710000e-01
   2.2258800000e+00   4.6520628680e-01   2.5215405560e-01
 Atom Cl4     Shell    18 SP   3
   3.1864900000e+00  -2.5182802800e-01  -1.4299314720e-02
   1.1442700000e+00   6.1589251410e-02   3.2357233310e-01
   4.2037700000e-01   1.0601843280e+00   7.4350776530e-01
 Atom Cl4     Shell    19 SP   1
   1.4265700000e-01   1.0000000000e+00   1.0000000000e+00
 Atom Cl4     Shell    20 D    1
   7.5000000000e-01   1.0000000000e+00
 Atom Cl5     Shell    21 S    6
   2.5180100000e+04   1.8329598480e-03
   3.7803500000e+03   1.4034198830e-02
   8.6047400000e+02   6.9097394260e-02
   2.4214500000e+02   2.3745198030e-01
   7.7334900000e+01   4.8303395990e-01
   2.6247000000e+01   3.3985597180e-01
 Atom Cl5     Shell    22 SP   6
   4.9176500000e+02  -2.2973914170e-03   3.9894008790e-03
   1.1698400000e+02  -3.0713718940e-02   3.0317706680e-02
   3.7415300000e+01  -1.1252806940e-01   1.2988002860e-01
   1.3783400000e+01   4.5016327760e-02   3.2795107230e-01
   5.4521500000e+00   5.8935336340e-01   4.5352710000e-01
   2.2258800000e+00   4.6520628680e-01   2.5215405560e-01
 Atom Cl5     Shell    23 SP   3
   3.1864900000e+00  -2.5182802800e-01  -1.4299314720e-02
   1.1442700000e+00   6.1589251410e-02   3.2357233310e-01
   4.2037700000e-01   1.0601843280e+00   7.4350776530e-01
 Atom Cl5     Shell    24 SP   1
   1.4265700000e-01   1.0000000000e+00   1.0000000000e+00
 Atom Cl5     Shell    25 D    1
   7.5000000000e-01   1.0000000000e+00
 Atom Cl6     Shell    26 S    6
   2.5180100000e+04   1.8329598480e-03
   3.7803500000e+03   1.4034198830e-02
   8.6047400000e+02   6.9097394260e-02
   2.4214500000e+02   2.3745198030e-01
   7.7334900000e+01   4.8303395990e-01
   2.6247000000e+01   3.3985597180e-01
 Atom Cl6     Shell    27 SP   6
   4.9176500000e+02  -2.2973914170e-03   3.9894008790e-03
   1.1698400000e+02  -3.0713718940e-02   3.0317706680e-02
   3.7415300000e+01  -1.1252806940e-01   1.2988002860e-01
   1.3783400000e+01   4.5016327760e-02   3.2795107230e-01
   5.4521500000e+00   5.8935336340e-01   4.5352710000e-01
   2.2258800000e+00   4.6520628680e-01   2.5215405560e-01
 Atom Cl6     Shell    28 SP   3
   3.1864900000e+00  -2.5182802800e-01  -1.4299314720e-02
   1.1442700000e+00   6.1589251410e-02   3.2357233310e-01
   4.2037700000e-01   1.0601843280e+00   7.4350776530e-01
 Atom Cl6     Shell    29 SP   1
   1.4265700000e-01   1.0000000000e+00   1.0000000000e+00
 Atom Cl6     Shell    30 D    1
   7.5000000000e-01   1.0000000000e+00

  Molecular Orbital Coefficients:
                           1         2         3         4         5
                           O         O         O         O         O    
     Eigenvalues --   -28.10781 -28.10781 -28.10780 -27.35380 -27.35380
    1 P1      .S       -0.00519  -0.00519  -0.00519  -0.00417  -0.00417
    2 P1      .S        0.02750   0.02750   0.02750   0.02213   0.02213
    3 P1      .X       -0.01578  -0.01578   0.03157  -0.00000  -0.00000
    4 P1      .Y        0.02734  -0.02734   0.00000  -0.00000  -0.00000
    5 P1      .Z        0.00000  -0.00000   0.00000   0.03087  -0.03087
    6 P1      .S       -0.05748  -0.05748  -0.05748  -0.03534  -0.03534
    7 P1      .X        0.03537   0.03537  -0.07074   0.00000   0.00000
    8 P1      .Y       -0.06127   0.06127  -0.00000   0.00000   0.00000
    9 P1      .Z       -0.00000   0.00000   0.00000  -0.06564   0.06564
   10 P1      .S       -0.09084  -0.09084  -0.09083  -0.06608  -0.06608
   11 P1      .X        0.09467   0.09467  -0.18933   0.00000   0.00000
   12 P1      .Y       -0.16397   0.16397  -0.00000  -0.00000  -0.00000
   13 P1      .Z        0.00000  -0.00000  -0.00000  -0.20874   0.20874
   14 P1      .XX       0.01358   0.01358   0.01215   0.00580   0.00580
   15 P1      .YY       0.01263   0.01263   0.01405   0.00580   0.00580
   16 P1      .ZZ       0.01412   0.01412   0.01412   0.00391   0.00391
   17 P1      .XY       0.00095  -0.00095   0.00000   0.00000   0.00000
   18 P1      .XZ       0.00000  -0.00000  -0.00000   0.00000  -0.00000
   19 P1      .YZ       0.00000   0.00000   0.00000  -0.00000   0.00000
   20 Cl2     .S       -0.00113  -0.00113   0.05615   0.00014   0.00014
   21 Cl2     .S        0.00295   0.00295  -0.19977  -0.00036  -0.00036
   22 Cl2     .X       -0.00216  -0.00216  -0.08696   0.00019   0.00019
   23 Cl2     .Y       -0.00682   0.00682  -0.00000   0.00000  -0.00000
   24 Cl2     .Z       -0.00000  -0.00000  -0.00000  -0.00244   0.00244
   25 Cl2     .S       -0.02023  -0.02023   0.78929   0.00385   0.00385
   26 Cl2     .X        0.00848   0.00848   0.23412  -0.00272  -0.00272
   27 Cl2     .Y        0.02059  -0.02059   0.00000  -0.00000   0.00000
   28 Cl2     .Z        0.00000   0.00000   0.00000   0.01072  -0.01072
   29 Cl2     .S       -0.00504  -0.00504   0.37898   0.00669   0.00669
   30 Cl2     .X        0.00372   0.00372   0.07258  -0.00371  -0.00371
   31 Cl2     .Y        0.01780  -0.01780   0.00000   0.00000   0.00000
   32 Cl2     .Z       -0.00000   0.00000   0.00000   0.00960  -0.00960
   33 Cl2     .XX       0.00015   0.00015  -0.01816   0.00023   0.00023
   34 Cl2     .YY       0.00017   0.00017  -0.00985   0.00022   0.00022
   35 Cl2     .ZZ       0.00018   0.00018  -0.01114  -0.00044  -0.00044
   36 Cl2     .XY       0.00003  -0.00003  -0.00000  -0.00000  -0.00000
   37 Cl2     .XZ      -0.00000  -0.00000   0.00000  -0.00064   0.00064
   38 Cl2     .YZ      -0.00000   0.00000   0.00000  -0.00000  -0.00000
   39 Cl3     .S        0.05615  -0.00113  -0.00113   0.00014   0.00014
   40 Cl3     .S       -0.19977   0.00295   0.00295  -0.00036  -0.00036
   41 Cl3     .X        0.04348   0.00698  -0.00483  -0.00010  -0.00010
   42 Cl3     .Y       -0.07531   0.00154  -0.00528   0.00017   0.00017
   43 Cl3     .Z       -0.00000  -0.00000  -0.00000  -0.00244   0.00244
   44 Cl3     .S        0.78929  -0.02023  -0.02023   0.00385   0.00385
   45 Cl3     .X       -0.11706  -0.02207   0.01359   0.00136   0.00136
   46 Cl3     .Y        0.20275  -0.00295   0.01764  -0.00235  -0.00235
   47 Cl3     .Z       -0.00000  -0.00000   0.00000   0.01072  -0.01072
   48 Cl3     .S        0.37898  -0.00504  -0.00504   0.00669   0.00669
   49 Cl3     .X       -0.03629  -0.01727   0.01355   0.00185   0.00185
   50 Cl3     .Y        0.06286  -0.00568   0.01212  -0.00321  -0.00321
   51 Cl3     .Z       -0.00000   0.00000  -0.00000   0.00960  -0.00960
   52 Cl3     .XX      -0.01193   0.00019   0.00014   0.00023   0.00023
   53 Cl3     .YY      -0.01608   0.00013   0.00018   0.00023   0.00023
   54 Cl3     .ZZ      -0.01114   0.00018   0.00018  -0.00044  -0.00044
   55 Cl3     .XY       0.00416  -0.00001   0.00003  -0.00000  -0.00000
   56 Cl3     .XZ       0.00000   0.00000  -0.00000   0.00032  -0.00032
   57 Cl3     .YZ       0.00000  -0.00000  -0.00000  -0.00056   0.00056
   58 Cl4     .S       -0.00113   0.05615  -0.00113   0.00014   0.00014
   59 Cl4     .S        0.00295  -0.19977   0.00295  -0.00036  -0.00036
   60 Cl4     .X        0.00698   0.04348  -0.00483  -0.00010  -0.00010
   61 Cl4     .Y       -0.00154   0.07531   0.00528  -0.00017  -0.00017
   62 Cl4     .Z       -0.00000  -0.00000  -0.00000  -0.00244   0.00244
   63 Cl4     .S       -0.02023   0.78929  -0.02023   0.00385   0.00385
   64 Cl4     .X       -0.02207  -0.11706   0.01359   0.00136   0.00136
   65 Cl4     .Y        0.00295  -0.20275  -0.01764   0.00235   0.00235
   66 Cl4     .Z        0.00000   0.00000   0.00000   0.01072  -0.01072
   67 Cl4     .S       -0.00504   0.37898  -0.00504   0.00669   0.00669
   68 Cl4     .X       -0.01727  -0.03629   0.01355   0.00185   0.00185
   69 Cl4     .Y        0.00568  -0.06286  -0.01212   0.00321   0.00321
   70 Cl4     .Z       -0.00000   0.00000  -0.00000   0.00960  -0.00960
   71 Cl4     .XX       0.00019  -0.01193   0.00014   0.00023   0.00023
   72 Cl4     .YY       0.00013  -0.01608   0.00018   0.00023   0.00023
   73 Cl4     .ZZ       0.00018  -0.01114   0.00018  -0.00044  -0.00044
   74 Cl4     .XY       0.00001  -0.00416  -0.00003   0.00000   0.00000
   75 Cl4     .XZ       0.00000   0.00000  -0.00000   0.00032  -0.00032
   76 Cl4     .YZ       0.00000   0.00000  -0.00000   0.00056  -0.00056
   77 Cl5     .S        0.00023   0.00023   0.00023   0.05665  -0.00271
   78 Cl5     .S       -0.00050  -0.00050  -0.00050  -0.20413   0.00976
   79 Cl5     .X        0.00108   0.00108  -0.00216   0.00000   0.00000
   80 Cl5     .Y       -0.00187   0.00187  -0.00000  -0.00000  -0.00000
   81 Cl5     .Z        0.00036   0.00036   0.00036  -0.07755  -0.00784
   82 Cl5     .S        0.00626   0.00626   0.00626   0.78436  -0.04242
   83 Cl5     .X       -0.00465  -0.00465   0.00930  -0.00000  -0.00000
   84 Cl5     .Y        0.00806  -0.00806   0.00000  -0.00000   0.00000
   85 Cl5     .Z       -0.00376  -0.00376  -0.00376   0.20557   0.02800
   86 Cl5     .S        0.00533   0.00533   0.00533   0.38611  -0.04612
   87 Cl5     .X       -0.00311  -0.00311   0.00622  -0.00000  -0.00000
   88 Cl5     .Y        0.00538  -0.00538  -0.00000   0.00000   0.00000
   89 Cl5     .Z       -0.00239  -0.00239  -0.00239   0.07376   0.02925
   90 Cl5     .XX      -0.00029  -0.00029  -0.00026  -0.01119   0.00280
   91 Cl5     .YY      -0.00027  -0.00027  -0.00030  -0.01119   0.00280
   92 Cl5     .ZZ      -0.00032  -0.00032  -0.00032  -0.01597   0.00208
   93 Cl5     .XY      -0.00002   0.00002  -0.00000   0.00000  -0.00000
   94 Cl5     .XZ      -0.00001  -0.00001   0.00001  -0.00000   0.00000
   95 Cl5     .YZ       0.00001  -0.00001   0.00000  -0.00000   0.00000
   96 Cl6     .S        0.00023   0.00023   0.00023  -0.00271   0.05665
   97 Cl6     .S       -0.00050  -0.00050  -0.00050   0.00976  -0.20413
   98 Cl6     .X        0.00108   0.00108  -0.00216   0.00000   0.00000
   99 Cl6     .Y       -0.00187   0.00187  -0.00000  -0.00000  -0.00000
  100 Cl6     .Z       -0.00036  -0.00036  -0.00036   0.00784   0.07755
  101 Cl6     .S        0.00626   0.00626   0.00626  -0.04242   0.78436
  102 Cl6     .X       -0.00465  -0.00465   0.00930  -0.00000  -0.00000
  103 Cl6     .Y        0.00806  -0.00806   0.00000   0.00000   0.00000
  104 Cl6     .Z        0.00376   0.00376   0.00376  -0.02800  -0.20557
  105 Cl6     .S        0.00533   0.00533   0.00533  -0.04612   0.38611
  106 Cl6     .X       -0.00311  -0.00311   0.00622  -0.00000  -0.00000
  107 Cl6     .Y        0.00538  -0.00538  -0.00000   0.00000   0.00000
  108 Cl6     .Z        0.00239   0.00239   0.00239  -0.02925  -0.07376
  109 Cl6     .XX      -0.00029  -0.00029  -0.00026   0.00280  -0.01119
  110 Cl6     .YY      -0.00027  -0.00027  -0.00030   0.00280  -0.01119
  111 Cl6     .ZZ      -0.00032  -0.00032  -0.00032   0.00208  -0.01597
  112 Cl6     .XY      -0.00002   0.00002   0.00000   0.00000   0.00000
  113 Cl6     .XZ       0.00001   0.00001  -0.00001  -0.00000   0.00000
  114 Cl6     .YZ      -0.00001   0.00001  -0.00000   0.00000  -0.00000
                           6         7         8         9        10
                           O         O         O         O         O    
     Eigenvalues --   -18.81465 -18.81454 -18.81454 -15.25874 -15.25874
    1 P1      .S        0.01330   0.01330   0.01330   0.00984   0.00984
    2 P1      .S       -0.04636  -0.04636  -0.04636  -0.03242  -0.03242
    3 P1      .X       -0.11985   0.05992   0.05992  -0.00000  -0.00000
    4 P1      .Y        0.00000   0.10379  -0.10379  -0.00000  -0.00000
    5 P1      .Z       -0.00000  -0.00000  -0.00000   0.08400  -0.08400
    6 P1      .S        0.16878   0.16878   0.16878   0.11863   0.11863
    7 P1      .X        0.38262  -0.19131  -0.19131   0.00000   0.00000
    8 P1      .Y       -0.00000  -0.33136   0.33136   0.00000   0.00000
    9 P1      .Z        0.00000   0.00000   0.00000  -0.26526   0.26526
   10 P1      .S        0.01830   0.01829   0.01829  -0.06083  -0.06083
   11 P1      .X        0.03747  -0.01874  -0.01874  -0.00000  -0.00000
   12 P1      .Y       -0.00000  -0.03245   0.03245   0.00000   0.00000
   13 P1      .Z       -0.00000  -0.00000  -0.00000  -0.03908   0.03908
   14 P1      .XX       0.17426   0.09604   0.09604  -0.15009  -0.15009
   15 P1      .YY       0.06997   0.14819   0.14819  -0.15009  -0.15009
   16 P1      .ZZ      -0.21309  -0.21309  -0.21309   0.34367   0.34367
   17 P1      .XY       0.00000   0.05215  -0.05215  -0.00000  -0.00000
   18 P1      .XZ      -0.00000  -0.00000  -0.00000  -0.00000   0.00000
   19 P1      .YZ      -0.00000  -0.00000  -0.00000   0.00000  -0.00000
   20 Cl2     .S        0.01502  -0.00049  -0.00049  -0.00093  -0.00093
   21 Cl2     .S       -0.03921   0.00275   0.00275  -0.00068  -0.00068
   22 Cl2     .X        0.19156  -0.00423  -0.00423  -0.00486  -0.00486
   23 Cl2     .Y       -0.00000  -0.00245   0.00245   0.00000   0.00000
   24 Cl2     .Z       -0.00000  -0.00000  -0.00000  -0.00649   0.00649
   25 Cl2     .S        0.24319  -0.00216  -0.00216  -0.01823  -0.01823
   26 Cl2     .X       -0.53280   0.00830   0.00830   0.01098   0.01098
   27 Cl2     .Y        0.00000   0.00539  -0.00539  -0.00000  -0.00000
   28 Cl2     .Z        0.00000   0.00000   0.00000   0.01651  -0.01651
   29 Cl2     .S       -0.00402  -0.01321  -0.01321   0.05565   0.05565
   30 Cl2     .X       -0.16618   0.00858   0.00858  -0.02279  -0.02279
   31 Cl2     .Y        0.00000   0.00189  -0.00189  -0.00000  -0.00000
   32 Cl2     .Z        0.00000   0.00000   0.00000   0.00580  -0.00580
   33 Cl2     .XX       0.06027   0.00027   0.00027  -0.00401  -0.00401
   34 Cl2     .YY      -0.01727   0.00041   0.00041  -0.00432  -0.00432
   35 Cl2     .ZZ      -0.02107   0.00037   0.00037  -0.00281  -0.00281
   36 Cl2     .XY      -0.00000   0.00037  -0.00037   0.00000   0.00000
   37 Cl2     .XZ       0.00000  -0.00000  -0.00000  -0.00135   0.00135
   38 Cl2     .YZ       0.00000   0.00000   0.00000   0.00000  -0.00000
   39 Cl3     .S       -0.00049  -0.00049   0.01502  -0.00093  -0.00093
   40 Cl3     .S        0.00275   0.00275  -0.03921  -0.00068  -0.00068
   41 Cl3     .X        0.00424  -0.00001  -0.09578   0.00243   0.00243
   42 Cl3     .Y       -0.00243  -0.00489   0.16590  -0.00421  -0.00421
   43 Cl3     .Z       -0.00000  -0.00000  -0.00000  -0.00649   0.00649
   44 Cl3     .S       -0.00216  -0.00216   0.24319  -0.01823  -0.01823
   45 Cl3     .X       -0.00882   0.00052   0.26640  -0.00549  -0.00549
   46 Cl3     .Y        0.00449   0.00988  -0.46142   0.00950   0.00950
   47 Cl3     .Z        0.00000   0.00000   0.00000   0.01651  -0.01651
   48 Cl3     .S       -0.01322  -0.01321  -0.00403   0.05566   0.05566
   49 Cl3     .X       -0.00593  -0.00265   0.08309   0.01140   0.01140
   50 Cl3     .Y        0.00649   0.00838  -0.14391  -0.01974  -0.01974
   51 Cl3     .Z        0.00000   0.00000   0.00000   0.00580  -0.00580
   52 Cl3     .XX       0.00065   0.00010   0.00212  -0.00425  -0.00425
   53 Cl3     .YY       0.00003   0.00058   0.04089  -0.00409  -0.00409
   54 Cl3     .ZZ       0.00037   0.00037  -0.02107  -0.00281  -0.00281
   55 Cl3     .XY      -0.00011   0.00026  -0.03877  -0.00016  -0.00016
   56 Cl3     .XZ       0.00000   0.00000   0.00000   0.00067  -0.00067
   57 Cl3     .YZ       0.00000  -0.00000   0.00000  -0.00117   0.00117
   58 Cl4     .S       -0.00049   0.01502  -0.00049  -0.00093  -0.00093
   59 Cl4     .S        0.00275  -0.03921   0.00275  -0.00068  -0.00068
   60 Cl4     .X        0.00424  -0.09578  -0.00001   0.00243   0.00243
   61 Cl4     .Y        0.00243  -0.16590   0.00489   0.00421   0.00421
   62 Cl4     .Z       -0.00000  -0.00000  -0.00000  -0.00649   0.00649
   63 Cl4     .S       -0.00216   0.24319  -0.00216  -0.01823  -0.01823
   64 Cl4     .X       -0.00882   0.26640   0.00052  -0.00549  -0.00549
   65 Cl4     .Y       -0.00449   0.46142  -0.00988  -0.00950  -0.00950
   66 Cl4     .Z        0.00000   0.00000   0.00000   0.01651  -0.01651
   67 Cl4     .S       -0.01322  -0.00403  -0.01321   0.05566   0.05566
   68 Cl4     .X       -0.00593   0.08309  -0.00265   0.01140   0.01140
   69 Cl4     .Y       -0.00649   0.14391  -0.00838   0.01974   0.01974
   70 Cl4     .Z        0.00000   0.00000   0.00000   0.00580  -0.00580
   71 Cl4     .XX       0.00065   0.00212   0.00010  -0.00425  -0.00425
   72 Cl4     .YY       0.00003   0.04089   0.00058  -0.00409  -0.00409
   73 Cl4     .ZZ       0.00037  -0.02107   0.00037  -0.00281  -0.00281
   74 Cl4     .XY       0.00011   0.03877  -0.00026   0.00016   0.00016
   75 Cl4     .XZ       0.00000   0.00000  -0.00000   0.00067  -0.00067
   76 Cl4     .YZ       0.00000   0.00000  -0.00000   0.00117  -0.00117
   77 Cl5     .S       -0.00083  -0.00083  -0.00083  -0.00185   0.01578
   78 Cl5     .S       -0.00048  -0.00048  -0.00048   0.00699  -0.04163
   79 Cl5     .X        0.00503  -0.00251  -0.00251  -0.00000  -0.00000
   80 Cl5     .Y       -0.00000  -0.00435   0.00435   0.00000   0.00000
   81 Cl5     .Z       -0.00063  -0.00063  -0.00063  -0.01054   0.20243
   82 Cl5     .S       -0.01881  -0.01881  -0.01881  -0.02211   0.25671
   83 Cl5     .X       -0.01112   0.00556   0.00556   0.00000   0.00000
   84 Cl5     .Y        0.00000   0.00963  -0.00963  -0.00000  -0.00000
   85 Cl5     .Z       -0.00307  -0.00307  -0.00307   0.03211  -0.55990
   86 Cl5     .S        0.03973   0.03973   0.03973   0.00176  -0.01772
   87 Cl5     .X       -0.00714   0.00357   0.00357   0.00000   0.00000
   88 Cl5     .Y        0.00000   0.00618  -0.00618  -0.00000  -0.00000
   89 Cl5     .Z       -0.00268  -0.00268  -0.00268  -0.00417  -0.21700
   90 Cl5     .XX      -0.00182  -0.00156  -0.00156  -0.00194  -0.01860
   91 Cl5     .YY      -0.00147  -0.00173  -0.00173  -0.00194  -0.01859
   92 Cl5     .ZZ      -0.00141  -0.00141  -0.00141   0.00014   0.05786
   93 Cl5     .XY       0.00000  -0.00017   0.00017   0.00000  -0.00000
   94 Cl5     .XZ      -0.00016   0.00008   0.00008   0.00000   0.00000
   95 Cl5     .YZ       0.00000   0.00014  -0.00014   0.00000   0.00000
   96 Cl6     .S       -0.00083  -0.00083  -0.00083   0.01578  -0.00185
   97 Cl6     .S       -0.00048  -0.00048  -0.00048  -0.04163   0.00699
   98 Cl6     .X        0.00503  -0.00251  -0.00251  -0.00000  -0.00000
   99 Cl6     .Y       -0.00000  -0.00435   0.00435   0.00000   0.00000
  100 Cl6     .Z        0.00063   0.00063   0.00063  -0.20243   0.01054
  101 Cl6     .S       -0.01881  -0.01881  -0.01881   0.25671  -0.02211
  102 Cl6     .X       -0.01112   0.00556   0.00556   0.00000   0.00000
  103 Cl6     .Y        0.00000   0.00963  -0.00963  -0.00000  -0.00000
  104 Cl6     .Z        0.00307   0.00307   0.00307   0.55990  -0.03211
  105 Cl6     .S        0.03973   0.03973   0.03973  -0.01772   0.00176
  106 Cl6     .X       -0.00714   0.00357   0.00357   0.00000   0.00000
  107 Cl6     .Y        0.00000   0.00618  -0.00618  -0.00000  -0.00000
  108 Cl6     .Z        0.00268   0.00268   0.00268   0.21700   0.00417
  109 Cl6     .XX      -0.00182  -0.00156  -0.00156  -0.01860  -0.00194
  110 Cl6     .YY      -0.00147  -0.00173  -0.00173  -0.01859  -0.00194
  111 Cl6     .ZZ      -0.00141  -0.00141  -0.00141   0.05786   0.00014
  112 Cl6     .XY       0.00000  -0.00017   0.00017   0.00000   0.00000
  113 Cl6     .XZ       0.00016  -0.00008  -0.00008  -0.00000  -0.00000
  114 Cl6     .YZ      -0.00000  -0.00014   0.00014  -0.00000  -0.00000
                          11        12        13        14        15
                           O         O         O         O         O    
     Eigenvalues --   -10.07231 -10.07229 -10.07229 -10.04909 -10.04904
    1 P1      .S        0.00000   0.00000   0.00000   0.00000  -0.00000
    2 P1      .S       -0.00000  -0.00000  -0.00000  -0.00000  -0.00000
    3 P1      .X       -0.00000   0.01896   0.01896   0.00000  -0.00000
    4 P1      .Y        0.02189  -0.01094   0.01094   0.00000  -0.00000
    5 P1      .Z        0.00000   0.00000   0.00000   0.02037   0.02037
    6 P1      .S        0.00000   0.00000   0.00000   0.00000  -0.00000
    7 P1      .X       -0.00000  -0.05493  -0.05493  -0.00000   0.00000
    8 P1      .Y       -0.06343   0.03172  -0.03172   0.00000   0.00000
    9 P1      .Z       -0.00000  -0.00000  -0.00000  -0.05747  -0.05747
   10 P1      .S       -0.00000   0.00000   0.00000  -0.00000   0.00000
   11 P1      .X       -0.00000  -0.06068  -0.06068   0.00000  -0.00000
   12 P1      .Y       -0.07007   0.03503  -0.03503  -0.00000   0.00000
   13 P1      .Z        0.00000   0.00000   0.00000  -0.07518  -0.07518
   14 P1      .XX      -0.00000   0.00072   0.00072  -0.00000  -0.00000
   15 P1      .YY       0.00000  -0.00072  -0.00072  -0.00000  -0.00000
   16 P1      .ZZ      -0.00000  -0.00000  -0.00000  -0.00000  -0.00000
   17 P1      .XY      -0.00096   0.00048  -0.00048   0.00000  -0.00000
   18 P1      .XZ       0.00000   0.00000  -0.00000   0.00123  -0.00061
   19 P1      .YZ       0.00000   0.00000  -0.00000  -0.00000  -0.00106
   20 Cl2     .S       -0.00000   0.00163   0.00163   0.00000   0.00000
   21 Cl2     .S       -0.00000  -0.00420  -0.00420  -0.00000   0.00000
   22 Cl2     .X       -0.00000   0.00304   0.00304  -0.00000   0.00000
   23 Cl2     .Y       -0.28009  -0.00038   0.00038  -0.00000   0.00000
   24 Cl2     .Z       -0.00000   0.00000  -0.00000  -0.27896  -0.00310
   25 Cl2     .S        0.00000   0.02977   0.02977   0.00000  -0.00000
   26 Cl2     .X        0.00000  -0.01318  -0.01318  -0.00000  -0.00000
   27 Cl2     .Y        0.76896  -0.00014   0.00014   0.00000  -0.00000
   28 Cl2     .Z        0.00000   0.00000   0.00000   0.76330   0.01048
   29 Cl2     .S        0.00000  -0.00359  -0.00359   0.00000  -0.00000
   30 Cl2     .X       -0.00000  -0.00464  -0.00464  -0.00000   0.00000
   31 Cl2     .Y        0.38758   0.00100  -0.00100  -0.00000  -0.00000
   32 Cl2     .Z       -0.00000  -0.00000  -0.00000   0.39948   0.00228
   33 Cl2     .XX      -0.00000   0.00028   0.00028  -0.00000   0.00000
   34 Cl2     .YY      -0.00000   0.00001   0.00001  -0.00000   0.00000
   35 Cl2     .ZZ      -0.00000  -0.00005  -0.00005  -0.00000   0.00000
   36 Cl2     .XY      -0.02739   0.00029  -0.00029   0.00000   0.00000
   37 Cl2     .XZ       0.00000   0.00000   0.00000  -0.02011  -0.00026
   38 Cl2     .YZ      -0.00000   0.00000  -0.00000  -0.00000  -0.00001
   39 Cl3     .S        0.00163  -0.00163  -0.00000  -0.00000   0.00000
   40 Cl3     .S       -0.00420   0.00420   0.00000   0.00000  -0.00000
   41 Cl3     .X       -0.00119   0.00185  -0.24256   0.00000   0.00000
   42 Cl3     .Y        0.00283  -0.00244  -0.14004   0.00000   0.00000
   43 Cl3     .Z        0.00000   0.00000  -0.00000  -0.00310  -0.00310
   44 Cl3     .S        0.02977  -0.02977  -0.00000  -0.00000   0.00000
   45 Cl3     .X        0.00671  -0.00646   0.66594  -0.00000  -0.00000
   46 Cl3     .Y       -0.01134   0.01149   0.38448   0.00000  -0.00000
   47 Cl3     .Z        0.00000  -0.00000   0.00000   0.01048   0.01048
   48 Cl3     .S       -0.00359   0.00359  -0.00000   0.00000  -0.00000
   49 Cl3     .X        0.00145  -0.00319   0.33566   0.00000  -0.00000
   50 Cl3     .Y       -0.00452   0.00352   0.19379  -0.00000   0.00000
   51 Cl3     .Z       -0.00000  -0.00000  -0.00000   0.00228   0.00228
   52 Cl3     .XX       0.00030   0.00013   0.02054   0.00000  -0.00000
   53 Cl3     .YY       0.00000  -0.00043  -0.02054   0.00000  -0.00000
   54 Cl3     .ZZ      -0.00005   0.00005   0.00000   0.00000  -0.00000
   55 Cl3     .XY      -0.00028  -0.00001  -0.01369   0.00000   0.00000
   56 Cl3     .XZ      -0.00000  -0.00000  -0.00000   0.00014   0.00012
   57 Cl3     .YZ      -0.00000  -0.00000   0.00000  -0.00022  -0.00023
   58 Cl4     .S       -0.00163  -0.00000  -0.00163   0.00000  -0.00000
   59 Cl4     .S        0.00420   0.00000   0.00420   0.00000  -0.00000
   60 Cl4     .X        0.00119  -0.24256   0.00185   0.00000   0.00000
   61 Cl4     .Y        0.00283   0.14004   0.00244   0.00000   0.00000
   62 Cl4     .Z       -0.00000  -0.00000   0.00000  -0.00310  -0.27896
   63 Cl4     .S       -0.02977  -0.00000  -0.02977  -0.00000   0.00000
   64 Cl4     .X       -0.00671   0.66594  -0.00646  -0.00000  -0.00000
   65 Cl4     .Y       -0.01134  -0.38448  -0.01149  -0.00000   0.00000
   66 Cl4     .Z        0.00000  -0.00000   0.00000   0.01048   0.76331
   67 Cl4     .S        0.00359  -0.00000   0.00359   0.00000  -0.00000
   68 Cl4     .X       -0.00145   0.33566  -0.00319   0.00000  -0.00000
   69 Cl4     .Y       -0.00452  -0.19379  -0.00352   0.00000  -0.00000
   70 Cl4     .Z        0.00000  -0.00000  -0.00000   0.00228   0.39948
   71 Cl4     .XX      -0.00030   0.02054   0.00013   0.00000  -0.00000
   72 Cl4     .YY      -0.00000  -0.02054  -0.00043   0.00000  -0.00000
   73 Cl4     .ZZ       0.00005   0.00000   0.00005   0.00000  -0.00000
   74 Cl4     .XY      -0.00028   0.01369   0.00001   0.00000  -0.00000
   75 Cl4     .XZ       0.00000  -0.00000  -0.00000   0.00014   0.01006
   76 Cl4     .YZ      -0.00000   0.00000  -0.00000   0.00022   0.01742
   77 Cl5     .S       -0.00000  -0.00000  -0.00000   0.00000   0.00000
   78 Cl5     .S        0.00000   0.00000   0.00000   0.00133   0.00133
   79 Cl5     .X       -0.00000   0.00018   0.00018   0.00999  -0.00500
   80 Cl5     .Y        0.00020  -0.00010   0.00010  -0.00000  -0.00866
   81 Cl5     .Z        0.00000  -0.00000  -0.00000  -0.00130  -0.00130
   82 Cl5     .S       -0.00000  -0.00000  -0.00000   0.00749   0.00750
   83 Cl5     .X        0.00000   0.00050   0.00050  -0.02609   0.01304
   84 Cl5     .Y        0.00058  -0.00029   0.00029   0.00000   0.02259
   85 Cl5     .Z       -0.00000   0.00000   0.00000  -0.00027  -0.00027
   86 Cl5     .S        0.00000  -0.00000  -0.00000   0.00385   0.00385
   87 Cl5     .X       -0.00000   0.00121   0.00121  -0.01833   0.00917
   88 Cl5     .Y        0.00139  -0.00070   0.00070  -0.00000   0.01588
   89 Cl5     .Z       -0.00000   0.00000   0.00000  -0.00176  -0.00176
   90 Cl5     .XX       0.00000  -0.00007  -0.00007  -0.00019  -0.00017
   91 Cl5     .YY       0.00000   0.00007   0.00007  -0.00017  -0.00019
   92 Cl5     .ZZ       0.00000   0.00000   0.00000   0.00007   0.00007
   93 Cl5     .XY       0.00010  -0.00005   0.00005   0.00000  -0.00001
   94 Cl5     .XZ      -0.00000  -0.00023  -0.00023  -0.00000   0.00000
   95 Cl5     .YZ      -0.00026   0.00013  -0.00013   0.00000   0.00000
   96 Cl6     .S        0.00000  -0.00000  -0.00000  -0.00000  -0.00000
   97 Cl6     .S       -0.00000   0.00000   0.00000  -0.00133  -0.00133
   98 Cl6     .X        0.00000   0.00018   0.00018  -0.00999   0.00500
   99 Cl6     .Y        0.00020  -0.00010   0.00010  -0.00000   0.00866
  100 Cl6     .Z       -0.00000   0.00000   0.00000  -0.00130  -0.00130
  101 Cl6     .S        0.00000  -0.00000  -0.00000  -0.00749  -0.00750
  102 Cl6     .X       -0.00000   0.00050   0.00050   0.02609  -0.01304
  103 Cl6     .Y        0.00058  -0.00029   0.00029  -0.00000  -0.02259
  104 Cl6     .Z        0.00000  -0.00000  -0.00000  -0.00027  -0.00027
  105 Cl6     .S        0.00000  -0.00000  -0.00000  -0.00385  -0.00385
  106 Cl6     .X       -0.00000   0.00121   0.00121   0.01833  -0.00917
  107 Cl6     .Y        0.00139  -0.00070   0.00070   0.00000  -0.01588
  108 Cl6     .Z        0.00000  -0.00000  -0.00000  -0.00176  -0.00176
  109 Cl6     .XX      -0.00000  -0.00007  -0.00007   0.00019   0.00017
  110 Cl6     .YY      -0.00000   0.00007   0.00007   0.00017   0.00019
  111 Cl6     .ZZ      -0.00000   0.00000   0.00000  -0.00007  -0.00007
  112 Cl6     .XY       0.00010  -0.00005   0.00005  -0.00000   0.00001
  113 Cl6     .XZ      -0.00000   0.00023   0.00023  -0.00000   0.00000
  114 Cl6     .YZ       0.00026  -0.00013   0.00013   0.00000   0.00000
                          16        17        18        19        20
                           O         O         O         O         O    
     Eigenvalues --   -10.04904  -9.20019  -9.20019  -9.20015  -9.20015
    1 P1      .S        0.00000  -0.00000  -0.00000   0.00000   0.00000
    2 P1      .S       -0.00000   0.00000   0.00000  -0.00000  -0.00000
    3 P1      .X        0.00000  -0.00000  -0.00000   0.01765   0.01765
    4 P1      .Y        0.00000   0.01765   0.01765   0.00000  -0.00000
    5 P1      .Z        0.02037  -0.00000  -0.00000  -0.00000   0.00000
    6 P1      .S        0.00000  -0.00000   0.00000   0.00000   0.00000
    7 P1      .X       -0.00000  -0.00000  -0.00000  -0.04830  -0.04830
    8 P1      .Y       -0.00000  -0.04830  -0.04830  -0.00000   0.00000
    9 P1      .Z       -0.05747   0.00000  -0.00000   0.00000  -0.00000
   10 P1      .S       -0.00000   0.00000   0.00000   0.00001   0.00001
   11 P1      .X        0.00000  -0.00000   0.00000  -0.06352  -0.06352
   12 P1      .Y        0.00000  -0.06352  -0.06352   0.00000  -0.00000
   13 P1      .Z       -0.07518  -0.00000   0.00000  -0.00001   0.00001
   14 P1      .XX      -0.00000   0.00000  -0.00000   0.00072   0.00072
   15 P1      .YY      -0.00000   0.00000  -0.00000  -0.00072  -0.00072
   16 P1      .ZZ      -0.00000   0.00000  -0.00000  -0.00000  -0.00000
   17 P1      .XY      -0.00000  -0.00083  -0.00083  -0.00000   0.00000
   18 P1      .XZ      -0.00061  -0.00000   0.00000  -0.00149   0.00149
   19 P1      .YZ       0.00106   0.00149  -0.00149  -0.00000  -0.00000
   20 Cl2     .S       -0.00000   0.00000  -0.00000   0.00006   0.00006
   21 Cl2     .S        0.00000   0.00000   0.00000   0.00138   0.00138
   22 Cl2     .X        0.00000   0.00000   0.00000  -0.00106  -0.00106
   23 Cl2     .Y       -0.00000  -0.00083  -0.00083   0.00000   0.00000
   24 Cl2     .Z       -0.00310  -0.00000  -0.00000  -0.01257   0.01257
   25 Cl2     .S       -0.00000  -0.00000   0.00000   0.01058   0.01058
   26 Cl2     .X        0.00000   0.00000  -0.00000  -0.00113  -0.00113
   27 Cl2     .Y        0.00000   0.00450   0.00450   0.00000  -0.00000
   28 Cl2     .Z        0.01048   0.00000   0.00000   0.03594  -0.03594
   29 Cl2     .S       -0.00000   0.00000  -0.00000   0.00009   0.00009
   30 Cl2     .X        0.00000  -0.00000   0.00000   0.00020   0.00020
   31 Cl2     .Y       -0.00000  -0.00193  -0.00193  -0.00000   0.00000
   32 Cl2     .Z        0.00228   0.00000  -0.00000   0.00840  -0.00840
   33 Cl2     .XX       0.00000   0.00000  -0.00000  -0.00092  -0.00092
   34 Cl2     .YY      -0.00000  -0.00000  -0.00000  -0.00144  -0.00144
   35 Cl2     .ZZ       0.00000   0.00000  -0.00000  -0.00038  -0.00038
   36 Cl2     .XY       0.00000   0.00049   0.00049  -0.00000  -0.00000
   37 Cl2     .XZ      -0.00026  -0.00000   0.00000   0.00074  -0.00074
   38 Cl2     .YZ       0.00001   0.00028  -0.00028   0.00000   0.00000
   39 Cl3     .S       -0.00000   0.00005   0.00005  -0.00003  -0.00003
   40 Cl3     .S        0.00000   0.00120   0.00120  -0.00069  -0.00069
   41 Cl3     .X       -0.00000   0.00010   0.00010  -0.00089  -0.00089
   42 Cl3     .Y       -0.00000  -0.00100  -0.00100   0.00010   0.00010
   43 Cl3     .Z       -0.27896   0.01089  -0.01089   0.00629  -0.00629
   44 Cl3     .S       -0.00000   0.00917   0.00917  -0.00529  -0.00529
   45 Cl3     .X        0.00000   0.00244   0.00244   0.00309   0.00309
   46 Cl3     .Y        0.00000   0.00028   0.00028   0.00244   0.00244
   47 Cl3     .Z        0.76331  -0.03113   0.03113  -0.01797   0.01797
   48 Cl3     .S        0.00000   0.00008   0.00008  -0.00005  -0.00005
   49 Cl3     .X       -0.00000  -0.00092  -0.00092  -0.00140  -0.00140
   50 Cl3     .Y       -0.00000  -0.00033  -0.00033  -0.00092  -0.00092
   51 Cl3     .Z        0.39948  -0.00728   0.00728  -0.00420   0.00420
   52 Cl3     .XX       0.00000  -0.00132  -0.00132   0.00034   0.00034
   53 Cl3     .YY       0.00000  -0.00073  -0.00073   0.00084   0.00084
   54 Cl3     .ZZ       0.00000  -0.00033  -0.00033   0.00019   0.00019
   55 Cl3     .XY       0.00000  -0.00010  -0.00010   0.00034   0.00034
   56 Cl3     .XZ       0.01006   0.00044  -0.00044  -0.00002   0.00002
   57 Cl3     .YZ      -0.01742  -0.00049   0.00049  -0.00044   0.00044
   58 Cl4     .S        0.00000  -0.00005  -0.00005  -0.00003  -0.00003
   59 Cl4     .S       -0.00000  -0.00120  -0.00120  -0.00069  -0.00069
   60 Cl4     .X       -0.00000  -0.00010  -0.00010  -0.00089  -0.00089
   61 Cl4     .Y       -0.00000  -0.00100  -0.00100  -0.00010  -0.00010
   62 Cl4     .Z       -0.00310  -0.01089   0.01089   0.00629  -0.00629
   63 Cl4     .S       -0.00000  -0.00917  -0.00917  -0.00529  -0.00529
   64 Cl4     .X        0.00000  -0.00244  -0.00244   0.00309   0.00309
   65 Cl4     .Y       -0.00000   0.00028   0.00028  -0.00244  -0.00244
   66 Cl4     .Z        0.01048   0.03113  -0.03113  -0.01797   0.01797
   67 Cl4     .S        0.00000  -0.00008  -0.00008  -0.00005  -0.00005
   68 Cl4     .X       -0.00000   0.00092   0.00092  -0.00140  -0.00140
   69 Cl4     .Y        0.00000  -0.00033  -0.00033   0.00092   0.00092
   70 Cl4     .Z        0.00228   0.00728  -0.00728  -0.00420   0.00420
   71 Cl4     .XX      -0.00000   0.00132   0.00132   0.00034   0.00034
   72 Cl4     .YY       0.00000   0.00073   0.00073   0.00084   0.00084
   73 Cl4     .ZZ      -0.00000   0.00033   0.00033   0.00019   0.00019
   74 Cl4     .XY      -0.00000  -0.00010  -0.00010  -0.00034  -0.00034
   75 Cl4     .XZ       0.00012  -0.00044   0.00044  -0.00002   0.00002
   76 Cl4     .YZ       0.00023  -0.00049   0.00049   0.00044  -0.00044
   77 Cl5     .S        0.00000  -0.00000  -0.00000   0.00000   0.00000
   78 Cl5     .S        0.00133   0.00000  -0.00000  -0.00000   0.00000
   79 Cl5     .X       -0.00500  -0.00000   0.00000  -0.00284  -0.27519
   80 Cl5     .Y        0.00866  -0.27519  -0.00284  -0.00000  -0.00000
   81 Cl5     .Z       -0.00130  -0.00000   0.00000   0.00000  -0.00000
   82 Cl5     .S        0.00750  -0.00000   0.00000   0.00000   0.00000
   83 Cl5     .X        0.01304   0.00000  -0.00000   0.00869   0.74568
   84 Cl5     .Y       -0.02259   0.74568   0.00869  -0.00000  -0.00000
   85 Cl5     .Z       -0.00027   0.00000   0.00000  -0.00000   0.00000
   86 Cl5     .S        0.00385   0.00000  -0.00000   0.00000  -0.00001
   87 Cl5     .X        0.00917  -0.00000   0.00000   0.00425   0.41024
   88 Cl5     .Y       -0.01588   0.41024   0.00425  -0.00000   0.00000
   89 Cl5     .Z       -0.00176  -0.00000   0.00000  -0.00000   0.00001
   90 Cl5     .XX      -0.00017   0.00000  -0.00000   0.00016  -0.00096
   91 Cl5     .YY      -0.00019   0.00000  -0.00000  -0.00016   0.00096
   92 Cl5     .ZZ       0.00007   0.00000  -0.00000  -0.00000   0.00000
   93 Cl5     .XY       0.00001   0.00111  -0.00019  -0.00000   0.00000
   94 Cl5     .XZ       0.00000   0.00000  -0.00000   0.00036  -0.01943
   95 Cl5     .YZ      -0.00000  -0.01943   0.00036  -0.00000  -0.00000
   96 Cl6     .S       -0.00000   0.00000  -0.00000   0.00000   0.00000
   97 Cl6     .S       -0.00133  -0.00000   0.00000   0.00000  -0.00000
   98 Cl6     .X        0.00500  -0.00000   0.00000  -0.27519  -0.00284
   99 Cl6     .Y       -0.00866  -0.00284  -0.27519  -0.00000   0.00000
  100 Cl6     .Z       -0.00130  -0.00000  -0.00000   0.00000  -0.00000
  101 Cl6     .S       -0.00750   0.00000  -0.00000   0.00000   0.00000
  102 Cl6     .X       -0.01304   0.00000   0.00000   0.74568   0.00869
  103 Cl6     .Y        0.02259   0.00869   0.74568  -0.00000  -0.00000
  104 Cl6     .Z       -0.00027   0.00000   0.00000  -0.00000   0.00000
  105 Cl6     .S       -0.00385  -0.00000   0.00000  -0.00001   0.00000
  106 Cl6     .X       -0.00917  -0.00000  -0.00000   0.41024   0.00425
  107 Cl6     .Y        0.01588   0.00425   0.41024   0.00000   0.00000
  108 Cl6     .Z       -0.00176  -0.00000   0.00000  -0.00001   0.00000
  109 Cl6     .XX       0.00017  -0.00000   0.00000  -0.00096   0.00016
  110 Cl6     .YY       0.00019  -0.00000   0.00000   0.00096  -0.00016
  111 Cl6     .ZZ      -0.00007  -0.00000   0.00000   0.00000  -0.00000
  112 Cl6     .XY      -0.00001  -0.00019   0.00111  -0.00000   0.00000
  113 Cl6     .XZ       0.00000   0.00000   0.00000   0.01943  -0.00036
  114 Cl6     .YZ      -0.00000  -0.00036   0.01943   0.00000   0.00000
                          21        22        23        24        25
                           V         V         V         V         V    
     Eigenvalues --     0.06920   0.06923   0.06923   2.57052   2.57052
    1 P1      .S        0.03348   0.03348   0.03348   0.03278   0.03278
    2 P1      .S       -0.11574  -0.11574  -0.11574  -0.11712  -0.11712
    3 P1      .X       -0.21909   0.10954   0.10954  -0.00000  -0.00000
    4 P1      .Y        0.00000   0.18973  -0.18973  -0.00000  -0.00000
    5 P1      .Z       -0.00000  -0.00000  -0.00000  -0.20107   0.20107
    6 P1      .S        0.44251   0.44251   0.44251   0.47179   0.47179
    7 P1      .X        0.71484  -0.35742  -0.35742   0.00000   0.00000
    8 P1      .Y       -0.00000  -0.61907   0.61907   0.00000   0.00000
    9 P1      .Z        0.00000   0.00000   0.00000   0.65370  -0.65370
   10 P1      .S       -0.01612  -0.01614  -0.01614  -0.04620  -0.04620
   11 P1      .X        0.28409  -0.14204  -0.14204  -0.00000  -0.00000
   12 P1      .Y       -0.00000  -0.24602   0.24602   0.00000   0.00000
   13 P1      .Z       -0.00000  -0.00000  -0.00000   0.19480  -0.19480
   14 P1      .XX       0.26237   0.15248   0.15248  -0.25408  -0.25408
   15 P1      .YY       0.11584   0.22574   0.22574  -0.25408  -0.25408
   16 P1      .ZZ      -0.26597  -0.26597  -0.26597   0.51147   0.51147
   17 P1      .XY       0.00000   0.07327  -0.07327  -0.00000  -0.00000
   18 P1      .XZ      -0.00000  -0.00000  -0.00000   0.00000  -0.00000
   19 P1      .YZ      -0.00000  -0.00000  -0.00000  -0.00000   0.00000
   20 Cl2     .S       -0.02829   0.00177   0.00177  -0.00086  -0.00086
   21 Cl2     .S        0.10126  -0.00331  -0.00331  -0.00408  -0.00408
   22 Cl2     .X       -0.23309   0.00063   0.00063  -0.00162  -0.00162
   23 Cl2     .Y       -0.00000  -0.01605   0.01605   0.00000   0.00000
   24 Cl2     .Z       -0.00000  -0.00000  -0.00000   0.01067  -0.01067
   25 Cl2     .S       -0.38539   0.03759   0.03759  -0.02990  -0.02990
   26 Cl2     .X        0.67576  -0.01245  -0.01245   0.00477   0.00477
   27 Cl2     .Y        0.00000   0.05011  -0.05011  -0.00000  -0.00000
   28 Cl2     .Z        0.00000   0.00000   0.00000  -0.03289   0.03289
   29 Cl2     .S       -0.04096   0.00459   0.00459   0.09653   0.09653
   30 Cl2     .X        0.30083  -0.00613  -0.00613  -0.04411  -0.04411
   31 Cl2     .Y        0.00000   0.00140  -0.00140  -0.00000  -0.00000
   32 Cl2     .Z        0.00000   0.00000   0.00000   0.00093  -0.00093
   33 Cl2     .XX      -0.04484  -0.00017  -0.00017  -0.00372  -0.00372
   34 Cl2     .YY       0.01363   0.00053   0.00053  -0.00366  -0.00366
   35 Cl2     .ZZ       0.01658   0.00068   0.00068  -0.00466  -0.00466
   36 Cl2     .XY      -0.00000  -0.00027   0.00027  -0.00000   0.00000
   37 Cl2     .XZ      -0.00000   0.00000  -0.00000  -0.00087   0.00087
   38 Cl2     .YZ       0.00000   0.00000  -0.00000  -0.00000   0.00000
   39 Cl3     .S        0.00177   0.00177  -0.02829  -0.00086  -0.00086
   40 Cl3     .S       -0.00331  -0.00331   0.10126  -0.00408  -0.00408
   41 Cl3     .X        0.01358  -0.01421   0.11655   0.00081   0.00081
   42 Cl3     .Y        0.00857  -0.00747  -0.20187  -0.00140  -0.00140
   43 Cl3     .Z       -0.00000  -0.00000  -0.00000   0.01067  -0.01067
   44 Cl3     .S        0.03759   0.03759  -0.38539  -0.02990  -0.02990
   45 Cl3     .X       -0.03718   0.04962  -0.33788  -0.00238  -0.00238
   46 Cl3     .Y       -0.03584   0.01428   0.58523   0.00413   0.00413
   47 Cl3     .Z        0.00000   0.00000   0.00000  -0.03289   0.03289
   48 Cl3     .S        0.00459   0.00459  -0.04094   0.09653   0.09653
   49 Cl3     .X        0.00185   0.00428  -0.15041   0.02205   0.02205
   50 Cl3     .Y       -0.00601  -0.00461   0.26052  -0.03820  -0.03820
   51 Cl3     .Z        0.00000   0.00000   0.00000   0.00093  -0.00093
   52 Cl3     .XX       0.00015   0.00056  -0.00099  -0.00367  -0.00367
   53 Cl3     .YY       0.00021  -0.00020  -0.03023  -0.00370  -0.00370
   54 Cl3     .ZZ       0.00068   0.00068   0.01658  -0.00466  -0.00466
   55 Cl3     .XY       0.00048   0.00021   0.02924   0.00003   0.00003
   56 Cl3     .XZ       0.00000  -0.00000  -0.00000   0.00044  -0.00044
   57 Cl3     .YZ      -0.00000   0.00000  -0.00000  -0.00075   0.00075
   58 Cl4     .S        0.00177  -0.02829   0.00177  -0.00086  -0.00086
   59 Cl4     .S       -0.00331   0.10126  -0.00331  -0.00408  -0.00408
   60 Cl4     .X        0.01358   0.11655  -0.01421   0.00081   0.00081
   61 Cl4     .Y       -0.00857   0.20187   0.00747   0.00140   0.00140
   62 Cl4     .Z       -0.00000  -0.00000  -0.00000   0.01067  -0.01067
   63 Cl4     .S        0.03759  -0.38539   0.03759  -0.02990  -0.02990
   64 Cl4     .X       -0.03718  -0.33788   0.04962  -0.00238  -0.00238
   65 Cl4     .Y        0.03584  -0.58523  -0.01428  -0.00413  -0.00413
   66 Cl4     .Z        0.00000   0.00000   0.00000  -0.03289   0.03289
   67 Cl4     .S        0.00459  -0.04094   0.00459   0.09653   0.09653
   68 Cl4     .X        0.00185  -0.15041   0.00428   0.02205   0.02205
   69 Cl4     .Y        0.00601  -0.26052   0.00461   0.03820   0.03820
   70 Cl4     .Z        0.00000   0.00000   0.00000   0.00093  -0.00093
   71 Cl4     .XX       0.00015  -0.00099   0.00056  -0.00367  -0.00367
   72 Cl4     .YY       0.00021  -0.03023  -0.00020  -0.00370  -0.00370
   73 Cl4     .ZZ       0.00068   0.01658   0.00068  -0.00466  -0.00466
   74 Cl4     .XY      -0.00048  -0.02924  -0.00021  -0.00003  -0.00003
   75 Cl4     .XZ       0.00000   0.00000   0.00000   0.00044  -0.00044
   76 Cl4     .YZ       0.00000   0.00000  -0.00000   0.00075  -0.00075
   77 Cl5     .S       -0.00024  -0.00024  -0.00024  -0.02441   0.00466
   78 Cl5     .S       -0.00423  -0.00423  -0.00423   0.09271  -0.00436
   79 Cl5     .X        0.00805  -0.00402  -0.00402   0.00000  -0.00000
   80 Cl5     .Y       -0.00000  -0.00697   0.00697   0.00000   0.00000
   81 Cl5     .Z        0.00548   0.00548   0.00548  -0.21563  -0.00190
   82 Cl5     .S       -0.01473  -0.01473  -0.01473  -0.31138   0.10173
   83 Cl5     .X       -0.02231   0.01115   0.01115  -0.00000   0.00000
   84 Cl5     .Y        0.00000   0.01932  -0.01932  -0.00000  -0.00000
   85 Cl5     .Z       -0.02115  -0.02116  -0.02116   0.60667  -0.00575
   86 Cl5     .S        0.06673   0.06673   0.06673  -0.04164  -0.11303
   87 Cl5     .X       -0.01524   0.00762   0.00762  -0.00000   0.00000
   88 Cl5     .Y        0.00000   0.01320  -0.01320  -0.00000  -0.00000
   89 Cl5     .Z       -0.01159  -0.01159  -0.01159   0.30405   0.01252
   90 Cl5     .XX      -0.00330  -0.00350  -0.00350   0.01330   0.00696
   91 Cl5     .YY      -0.00356  -0.00337  -0.00337   0.01330   0.00696
   92 Cl5     .ZZ      -0.00406  -0.00406  -0.00406  -0.03610   0.00570
   93 Cl5     .XY       0.00000   0.00013  -0.00013  -0.00000  -0.00000
   94 Cl5     .XZ       0.00012  -0.00006  -0.00006  -0.00000  -0.00000
   95 Cl5     .YZ      -0.00000  -0.00011   0.00011  -0.00000  -0.00000
   96 Cl6     .S       -0.00024  -0.00024  -0.00024   0.00466  -0.02441
   97 Cl6     .S       -0.00423  -0.00423  -0.00423  -0.00436   0.09271
   98 Cl6     .X        0.00805  -0.00402  -0.00402  -0.00000   0.00000
   99 Cl6     .Y       -0.00000  -0.00697   0.00697   0.00000   0.00000
  100 Cl6     .Z       -0.00548  -0.00548  -0.00548   0.00190   0.21563
  101 Cl6     .S       -0.01473  -0.01473  -0.01473   0.10173  -0.31138
  102 Cl6     .X       -0.02231   0.01115   0.01115   0.00000  -0.00000
  103 Cl6     .Y        0.00000   0.01932  -0.01932  -0.00000  -0.00000
  104 Cl6     .Z        0.02115   0.02116   0.02116   0.00575  -0.60667
  105 Cl6     .S        0.06673   0.06673   0.06673  -0.11303  -0.04164
  106 Cl6     .X       -0.01524   0.00762   0.00762   0.00000  -0.00000
  107 Cl6     .Y        0.00000   0.01320  -0.01320  -0.00000  -0.00000
  108 Cl6     .Z        0.01159   0.01159   0.01159  -0.01252  -0.30405
  109 Cl6     .XX      -0.00330  -0.00350  -0.00350   0.00696   0.01330
  110 Cl6     .YY      -0.00356  -0.00337  -0.00337   0.00696   0.01330
  111 Cl6     .ZZ      -0.00406  -0.00406  -0.00406   0.00570  -0.03610
  112 Cl6     .XY      -0.00000   0.00013  -0.00013   0.00000   0.00000
  113 Cl6     .XZ      -0.00012   0.00006   0.00006   0.00000   0.00000
  114 Cl6     .YZ       0.00000   0.00011  -0.00011  -0.00000   0.00000
                          26        27        28        29        30
                           V         V         V         V         V    
     Eigenvalues --    10.17118  10.17118  10.65928  13.35232  13.35243
    1 P1      .S       -0.00000  -0.00000  -0.00000   0.00598   0.00598
    2 P1      .S        0.00000  -0.00000  -0.00000  -0.03038  -0.03037
    3 P1      .X       -0.00000  -0.12724  -0.00000  -0.03071   0.01535
    4 P1      .Y        0.12724   0.00000   0.00000   0.00000  -0.02659
    5 P1      .Z       -0.00000  -0.00000  -0.23078  -0.00000   0.00000
    6 P1      .S       -0.00000  -0.00001  -0.00000   0.18489   0.18489
    7 P1      .X        0.00000   0.68583   0.00000   0.23154  -0.11576
    8 P1      .Y       -0.68584  -0.00000  -0.00000  -0.00000   0.20052
    9 P1      .Z        0.00000   0.00000   1.25608  -0.00000   0.00000
   10 P1      .S        0.00000   0.00004   0.00000   0.69997   0.69993
   11 P1      .X       -0.00000  -1.14295  -0.00000   0.04382  -0.02197
   12 P1      .Y        1.14296   0.00000   0.00000   0.00000   0.03790
   13 P1      .Z       -0.00000   0.00000  -2.64484   0.00000  -0.00000
   14 P1      .XX      -0.00000   0.67563  -0.00000  -0.01314  -0.07018
   15 P1      .YY       0.00000  -0.67564  -0.00000  -0.08920  -0.03215
   16 P1      .ZZ       0.00000  -0.00001   0.00000  -0.10675  -0.10675
   17 P1      .XY       0.78015  -0.00000  -0.00000  -0.00000  -0.03803
   18 P1      .XZ      -0.00000  -0.00000  -0.00028  -0.00000   0.00000
   19 P1      .YZ      -0.00000   0.00000  -0.00000  -0.00000   0.00000
   20 Cl2     .S        0.00000   0.00996   0.00000  -0.01828  -0.00051
   21 Cl2     .S       -0.00000  -0.00263  -0.00000   0.02107   0.00662
   22 Cl2     .X        0.00000  -0.01872   0.00000   0.24223  -0.00106
   23 Cl2     .Y        0.04874   0.00000  -0.00000  -0.00000  -0.00457
   24 Cl2     .Z        0.00000  -0.00000  -0.06271  -0.00000  -0.00000
   25 Cl2     .S        0.00000   0.25203   0.00000  -0.11465  -0.00393
   26 Cl2     .X       -0.00000   0.03215  -0.00000  -0.98039   0.00644
   27 Cl2     .Y       -0.14045  -0.00000   0.00000   0.00000   0.01235
   28 Cl2     .Z       -0.00000   0.00000   0.20111   0.00000   0.00000
   29 Cl2     .S        0.00000   0.00183   0.00000   0.28519  -0.13011
   30 Cl2     .X       -0.00000   0.06864  -0.00000   1.41574   0.06589
   31 Cl2     .Y       -0.13981  -0.00000  -0.00000  -0.00000   0.00165
   32 Cl2     .Z        0.00000   0.00000   0.21702  -0.00000   0.00000
   33 Cl2     .XX      -0.00000   0.00070   0.00000  -0.46531   0.00747
   34 Cl2     .YY      -0.00000   0.00070   0.00000   0.13672   0.00829
   35 Cl2     .ZZ      -0.00000   0.00070   0.00000  -0.24593   0.00838
   36 Cl2     .XY      -0.00000  -0.00000   0.00000   0.00000   0.00137
   37 Cl2     .XZ      -0.00000   0.00000  -0.00000   0.00000   0.00000
   38 Cl2     .YZ      -0.00000   0.00000  -0.00000  -0.00000  -0.00000
   39 Cl3     .S       -0.00862  -0.00498   0.00000  -0.00051  -0.01827
   40 Cl3     .S        0.00228   0.00132  -0.00000   0.00663   0.02105
   41 Cl3     .X        0.01300  -0.04123  -0.00000  -0.00343  -0.12111
   42 Cl3     .Y        0.02623  -0.01300   0.00000  -0.00320   0.20979
   43 Cl3     .Z        0.00000   0.00000  -0.06271  -0.00000  -0.00000
   44 Cl3     .S       -0.21827  -0.12602   0.00000  -0.00393  -0.11453
   45 Cl3     .X       -0.04690   0.11337   0.00000   0.00747   0.49015
   46 Cl3     .Y       -0.05922   0.04690  -0.00000   0.01176  -0.84906
   47 Cl3     .Z       -0.00000  -0.00000   0.20110   0.00000   0.00000
   48 Cl3     .S       -0.00159  -0.00092  -0.00000  -0.13015   0.28525
   49 Cl3     .X       -0.03082   0.12201  -0.00000  -0.03153  -0.70780
   50 Cl3     .Y       -0.08643   0.03082   0.00000   0.05790   1.22608
   51 Cl3     .Z       -0.00000  -0.00000   0.21699  -0.00000   0.00000
   52 Cl3     .XX      -0.00060  -0.00035   0.00000   0.00706  -0.01384
   53 Cl3     .YY      -0.00060  -0.00035   0.00000   0.00871  -0.31487
   54 Cl3     .ZZ      -0.00060  -0.00035   0.00000   0.00839  -0.24600
   55 Cl3     .XY      -0.00000   0.00000   0.00000   0.00110   0.30098
   56 Cl3     .XZ       0.00000  -0.00000   0.00000  -0.00000  -0.00000
   57 Cl3     .YZ       0.00000   0.00000  -0.00000   0.00000  -0.00000
   58 Cl4     .S        0.00862  -0.00498   0.00000  -0.00051  -0.00051
   59 Cl4     .S       -0.00228   0.00132  -0.00000   0.00663   0.00663
   60 Cl4     .X       -0.01300  -0.04123  -0.00000  -0.00343   0.00449
   61 Cl4     .Y        0.02623   0.01300  -0.00000   0.00320  -0.00137
   62 Cl4     .Z       -0.00000   0.00000  -0.06271   0.00000   0.00000
   63 Cl4     .S        0.21827  -0.12602  -0.00000  -0.00393  -0.00393
   64 Cl4     .X        0.04690   0.11337   0.00000   0.00747  -0.01392
   65 Cl4     .Y       -0.05922  -0.04690   0.00000  -0.01176   0.00059
   66 Cl4     .Z        0.00000  -0.00000   0.20110  -0.00000  -0.00000
   67 Cl4     .S        0.00159  -0.00092   0.00000  -0.13015  -0.13018
   68 Cl4     .X        0.03082   0.12201   0.00000  -0.03153  -0.03438
   69 Cl4     .Y       -0.08643  -0.03082   0.00000  -0.05790  -0.05627
   70 Cl4     .Z        0.00000  -0.00000   0.21699  -0.00000   0.00000
   71 Cl4     .XX       0.00060  -0.00035   0.00000   0.00706   0.00912
   72 Cl4     .YY       0.00060  -0.00035   0.00000   0.00871   0.00665
   73 Cl4     .ZZ       0.00060  -0.00035   0.00000   0.00839   0.00839
   74 Cl4     .XY      -0.00000  -0.00000   0.00000  -0.00110   0.00027
   75 Cl4     .XZ      -0.00000   0.00000   0.00000  -0.00000  -0.00000
   76 Cl4     .YZ       0.00000  -0.00000   0.00000  -0.00000  -0.00000
   77 Cl5     .S        0.00000  -0.00000   0.02652  -0.00015  -0.00015
   78 Cl5     .S        0.00000   0.00000  -0.07170  -0.00229  -0.00229
   79 Cl5     .X       -0.00000  -0.03511  -0.00000  -0.00684   0.00342
   80 Cl5     .Y        0.03511   0.00000  -0.00000  -0.00000  -0.00592
   81 Cl5     .Z       -0.00000  -0.00000   0.04745   0.00048   0.00048
   82 Cl5     .S        0.00000  -0.00000   0.49472  -0.01074  -0.01074
   83 Cl5     .X        0.00000   0.11072   0.00001   0.02352  -0.01176
   84 Cl5     .Y       -0.11073  -0.00000   0.00000   0.00000   0.02037
   85 Cl5     .Z        0.00000   0.00000  -0.21800   0.00686   0.00686
   86 Cl5     .S       -0.00000  -0.00000   0.48660  -0.02940  -0.02939
   87 Cl5     .X        0.00000   0.07423   0.00001   0.02067  -0.01033
   88 Cl5     .Y       -0.07423  -0.00000  -0.00000  -0.00000   0.01790
   89 Cl5     .Z        0.00000   0.00000  -0.14554   0.00272   0.00272
   90 Cl5     .XX       0.00000   0.00000  -0.02200  -0.00048  -0.00156
   91 Cl5     .YY       0.00000   0.00000  -0.02200  -0.00191  -0.00084
   92 Cl5     .ZZ       0.00000   0.00000  -0.02200  -0.00216  -0.00216
   93 Cl5     .XY       0.00000   0.00000   0.00000   0.00000  -0.00072
   94 Cl5     .XZ       0.00000   0.00000  -0.00000   0.00066  -0.00033
   95 Cl5     .YZ      -0.00000  -0.00000  -0.00000   0.00000   0.00057
   96 Cl6     .S        0.00000  -0.00000  -0.02652  -0.00015  -0.00015
   97 Cl6     .S        0.00000   0.00000   0.07170  -0.00229  -0.00229
   98 Cl6     .X       -0.00000  -0.03511   0.00000  -0.00684   0.00342
   99 Cl6     .Y        0.03511   0.00000   0.00000  -0.00000  -0.00592
  100 Cl6     .Z        0.00000   0.00000   0.04745  -0.00048  -0.00048
  101 Cl6     .S        0.00000  -0.00000  -0.49472  -0.01074  -0.01074
  102 Cl6     .X        0.00000   0.11072  -0.00001   0.02352  -0.01176
  103 Cl6     .Y       -0.11073  -0.00000  -0.00000   0.00000   0.02037
  104 Cl6     .Z       -0.00000  -0.00000  -0.21800  -0.00686  -0.00686
  105 Cl6     .S       -0.00000  -0.00000  -0.48660  -0.02940  -0.02939
  106 Cl6     .X        0.00000   0.07423  -0.00001   0.02067  -0.01033
  107 Cl6     .Y       -0.07423  -0.00000  -0.00000  -0.00000   0.01790
  108 Cl6     .Z       -0.00000  -0.00000  -0.14554  -0.00272  -0.00272
  109 Cl6     .XX       0.00000   0.00000   0.02200  -0.00048  -0.00156
  110 Cl6     .YY       0.00000   0.00000   0.02200  -0.00191  -0.00084
  111 Cl6     .ZZ       0.00000   0.00000   0.02200  -0.00216  -0.00216
  112 Cl6     .XY       0.00000   0.00000  -0.00000  -0.00000  -0.00072
  113 Cl6     .XZ      -0.00000  -0.00000  -0.00000  -0.00066   0.00033
  114 Cl6     .YZ       0.00000   0.00000  -0.00000  -0.00000  -0.00057
                          31        32        33        34
                           V         V         V         V    
     Eigenvalues --    13.35243  14.27044  14.27058  14.38213
    1 P1      .S        0.00598   0.00000  -0.00000   0.00000
    2 P1      .S       -0.03037  -0.00000   0.00000  -0.00000
    3 P1      .X        0.01535  -0.18596  -0.00000  -0.00000
    4 P1      .Y        0.02659  -0.00000  -0.18596  -0.00000
    5 P1      .Z       -0.00000   0.00000   0.00000  -0.00006
    6 P1      .S        0.18489   0.00002  -0.00000   0.00000
    7 P1      .X       -0.11576   0.94406   0.00000   0.00000
    8 P1      .Y       -0.20052   0.00000   0.94406   0.00000
    9 P1      .Z        0.00000  -0.00000  -0.00000   0.00035
   10 P1      .S        0.69993  -0.00002   0.00000  -0.00000
   11 P1      .X       -0.02197  -1.94002  -0.00000  -0.00000
   12 P1      .Y       -0.03790  -0.00000  -1.94002  -0.00000
   13 P1      .Z       -0.00000   0.00000   0.00000  -0.00073
   14 P1      .XX      -0.07018  -0.61997   0.00000  -0.00000
   15 P1      .YY      -0.03215   0.61997  -0.00000  -0.00000
   16 P1      .ZZ      -0.10675  -0.00001   0.00000  -0.00000
   17 P1      .XY       0.03803  -0.00000   0.71588   0.00000
   18 P1      .XZ       0.00000  -0.00000   0.00000   1.01324
   19 P1      .YZ      -0.00000  -0.00000   0.00000  -0.00000
   20 Cl2     .S       -0.00051   0.02166   0.00000   0.00000
   21 Cl2     .S        0.00662  -0.07120  -0.00000  -0.00000
   22 Cl2     .X       -0.00106   0.03926  -0.00000  -0.00000
   23 Cl2     .Y        0.00457  -0.00000  -0.03925   0.00000
   24 Cl2     .Z       -0.00000  -0.00000  -0.00000   0.01204
   25 Cl2     .S       -0.00393   0.36636   0.00000   0.00000
   26 Cl2     .X        0.00644  -0.15918   0.00000   0.00000
   27 Cl2     .Y       -0.01235   0.00000   0.12571  -0.00000
   28 Cl2     .Z        0.00000   0.00000   0.00000  -0.02149
   29 Cl2     .S       -0.13011   0.51890   0.00000   0.00000
   30 Cl2     .X        0.06589  -0.21363   0.00000  -0.00000
   31 Cl2     .Y       -0.00165   0.00000   0.16737   0.00000
   32 Cl2     .Z       -0.00000   0.00000  -0.00000  -0.07468
   33 Cl2     .XX       0.00747  -0.02253   0.00000  -0.00000
   34 Cl2     .YY       0.00829  -0.02253   0.00000  -0.00000
   35 Cl2     .ZZ       0.00838  -0.02253   0.00000  -0.00000
   36 Cl2     .XY      -0.00137   0.00000  -0.00000  -0.00000
   37 Cl2     .XZ       0.00000   0.00000   0.00000   0.00000
   38 Cl2     .YZ       0.00000   0.00000   0.00000  -0.00000
   39 Cl3     .S       -0.00051  -0.01083   0.01876  -0.00000
   40 Cl3     .S        0.00663   0.03560  -0.06167   0.00000
   41 Cl3     .X        0.00449  -0.01962  -0.03400   0.00000
   42 Cl3     .Y        0.00137  -0.03400   0.01963  -0.00000
   43 Cl3     .Z       -0.00000   0.00000  -0.00000  -0.00605
   44 Cl3     .S       -0.00393  -0.18318   0.31727  -0.00000
   45 Cl3     .X       -0.01392   0.05449   0.12336  -0.00000
   46 Cl3     .Y       -0.00059   0.12336  -0.08796   0.00000
   47 Cl3     .Z        0.00000  -0.00000   0.00000   0.01083
   48 Cl3     .S       -0.13018  -0.25945   0.44939   0.00000
   49 Cl3     .X       -0.03438   0.07212   0.16498   0.00000
   50 Cl3     .Y        0.05627   0.16498  -0.11839  -0.00000
   51 Cl3     .Z       -0.00000  -0.00000   0.00000   0.03743
   52 Cl3     .XX       0.00912   0.01126  -0.01951   0.00000
   53 Cl3     .YY       0.00665   0.01126  -0.01951   0.00000
   54 Cl3     .ZZ       0.00839   0.01126  -0.01951   0.00000
   55 Cl3     .XY      -0.00027  -0.00000  -0.00000  -0.00000
   56 Cl3     .XZ      -0.00000  -0.00000  -0.00000  -0.00000
   57 Cl3     .YZ       0.00000   0.00000  -0.00000  -0.00000
   58 Cl4     .S       -0.01827  -0.01083  -0.01876   0.00000
   59 Cl4     .S        0.02105   0.03560   0.06167  -0.00000
   60 Cl4     .X       -0.12111  -0.01962   0.03400   0.00000
   61 Cl4     .Y       -0.20979   0.03400   0.01963   0.00000
   62 Cl4     .Z       -0.00000   0.00000   0.00000  -0.00605
   63 Cl4     .S       -0.11453  -0.18318  -0.31727   0.00000
   64 Cl4     .X        0.49015   0.05449  -0.12336  -0.00000
   65 Cl4     .Y        0.84906  -0.12336  -0.08796  -0.00000
   66 Cl4     .Z        0.00000  -0.00000   0.00000   0.01083
   67 Cl4     .S        0.28525  -0.25945  -0.44939  -0.00000
   68 Cl4     .X       -0.70780   0.07212  -0.16498   0.00000
   69 Cl4     .Y       -1.22608  -0.16498  -0.11839   0.00000
   70 Cl4     .Z        0.00000  -0.00000  -0.00000   0.03743
   71 Cl4     .XX      -0.01384   0.01126   0.01951  -0.00000
   72 Cl4     .YY      -0.31487   0.01126   0.01951  -0.00000
   73 Cl4     .ZZ      -0.24600   0.01126   0.01951  -0.00000
   74 Cl4     .XY      -0.30098   0.00000   0.00000   0.00000
   75 Cl4     .XZ       0.00000  -0.00000   0.00000   0.00000
   76 Cl4     .YZ      -0.00000  -0.00000  -0.00000   0.00000
   77 Cl5     .S       -0.00015   0.00000   0.00000   0.00001
   78 Cl5     .S       -0.00229  -0.00000   0.00000  -0.00002
   79 Cl5     .X        0.00342  -0.04784  -0.00000   0.01545
   80 Cl5     .Y        0.00592  -0.00000  -0.04784   0.00000
   81 Cl5     .Z        0.00048   0.00000  -0.00000   0.00001
   82 Cl5     .S       -0.01074   0.00000   0.00000   0.00014
   83 Cl5     .X       -0.01176   0.15740   0.00000  -0.03934
   84 Cl5     .Y       -0.02037   0.00000   0.15740  -0.00000
   85 Cl5     .Z        0.00686  -0.00000   0.00000  -0.00006
   86 Cl5     .S       -0.02939   0.00000  -0.00000   0.00013
   87 Cl5     .X       -0.01033   0.10546   0.00000  -0.02646
   88 Cl5     .Y       -0.01790   0.00000   0.10546   0.00000
   89 Cl5     .Z        0.00272  -0.00000   0.00000  -0.00004
   90 Cl5     .XX      -0.00156  -0.00000   0.00000  -0.00001
   91 Cl5     .YY      -0.00084  -0.00000   0.00000  -0.00001
   92 Cl5     .ZZ      -0.00216  -0.00000   0.00000  -0.00001
   93 Cl5     .XY       0.00072  -0.00000   0.00000   0.00000
   94 Cl5     .XZ      -0.00033  -0.00000   0.00000   0.00000
   95 Cl5     .YZ      -0.00057   0.00000  -0.00000  -0.00000
   96 Cl6     .S       -0.00015   0.00000   0.00000  -0.00001
   97 Cl6     .S       -0.00229  -0.00000   0.00000   0.00002
   98 Cl6     .X        0.00342  -0.04784  -0.00000  -0.01545
   99 Cl6     .Y        0.00592  -0.00000  -0.04784  -0.00000
  100 Cl6     .Z       -0.00048  -0.00000   0.00000   0.00001
  101 Cl6     .S       -0.01074   0.00000   0.00000  -0.00014
  102 Cl6     .X       -0.01176   0.15740   0.00000   0.03934
  103 Cl6     .Y       -0.02037   0.00000   0.15740   0.00000
  104 Cl6     .Z       -0.00686   0.00000  -0.00000  -0.00006
  105 Cl6     .S       -0.02939   0.00000  -0.00000  -0.00013
  106 Cl6     .X       -0.01033   0.10546   0.00000   0.02646
  107 Cl6     .Y       -0.01790   0.00000   0.10546   0.00000
  108 Cl6     .Z       -0.00272   0.00000  -0.00000  -0.00004
  109 Cl6     .XX      -0.00156  -0.00000   0.00000   0.00001
  110 Cl6     .YY      -0.00084  -0.00000   0.00000   0.00001
  111 Cl6     .ZZ      -0.00216  -0.00000   0.00000   0.00001
  112 Cl6     .XY       0.00072  -0.00000   0.00000  -0.00000
  113 Cl6     .XZ       0.00033   0.00000   0.00000  -0.00000
  114 Cl6     .YZ       0.00057  -0.00000   0.00000   0.00000
