 Entering Gaussian System

 Standard orientation:



 -------------------------------------------------------
     1  15    0     0.000000     0.000000     0.000000
     2  17    0     2.070228     0.000000     0.000000
     3  17    0    -1.035114     1.792870     0.000000
     4  17    0    -1.035114    -1.792870     0.000000
     5  17    0     0.000000     0.000000     2.176807
     6  17    0     0.000000     0.000000    -2.176807
 -------------------------------------------------------

 AO basis set (Overlap normalization):
 Atom  P1     Shell     1 S    6
   1.9413300000e+04   1.8515989230e-03
   2.9094200000e+03   1.4206191740e-02
   6.6136400000e+02   6.9999459280e-02
   1.8575900000e+02   2.4007886030e-01
   5.9194300000e+01   4.8476171800e-01
   2.0031000000e+01   3.3519980500e-01
 Atom  P1     Shell     2 SP   6
   3.3947800000e+02  -2.7821701050e-03   4.5646161910e-03
   8.1010100000e+01  -3.6049901350e-02   3.3693571880e-02
   2.5878000000e+01  -1.1663100440e-01   1.3975488340e-01
   9.4522100000e+00   9.6832803640e-02   3.3936171680e-01
   3.6656600000e+00   6.1441802310e-01   4.5092062370e-01
   1.4674600000e+00   4.0379801520e-01   2.3858580090e-01
 Atom  P1     Shell     3 SP   3
   2.1562300000e+00  -2.5292411390e-01  -1.7765312730e-02
   7.4899700000e-01   3.2851844680e-02   2.7405819640e-01
   2.8314500000e-01   1.0812547620e+00   7.8542156300e-01
 Atom  P1     Shell     4 SP   1
   9.9831700000e-02   1.0000000000e+00   1.0000000000e+00
 Atom  P1     Shell     5 D    1
   5.5000000000e-01   1.0000000000e+00
 Atom Cl2     Shell     6 S    6
   2.5180100000e+04   1.8329598480e-03
   3.7803500000e+03   1.4034198830e-02
   8.6047400000e+02   6.9097394260e-02
   2.4214500000e+02   2.3745198030e-01
   7.7334900000e+01   4.8303395990e-01
   2.6247000000e+01   3.3985597180e-01
 Atom Cl2     Shell     7 SP   6
   4.9176500000e+02  -2.2973914170e-03   3.9894008790e-03
   1.1698400000e+02  -3.0713718940e-02   3.0317706680e-02
   3.7415300000e+01  -1.1252806940e-01   1.2988002860e-01
   1.3783400000e+01   4.5016327760e-02   3.2795107230e-01
   5.4521500000e+00   5.8935336340e-01   4.5352710000e-01
   2.2258800000e+00   4.6520628680e-01   2.5215405560e-01
 Atom Cl2     Shell     8 SP   3
   3.1864900000e+00  -2.5182802800e-01  -1.4299314720e-02
   1.1442700000e+00   6.1589251410e-02   3.2357233310e-01
   4.2037700000e-01   1.0601843280e+00   7.4350776530e-01
 Atom Cl2     Shell     9 SP   1
   1.4265700000e-01   1.0000000000e+00   1.0000000000e+00
 Atom Cl2     Shell    10 D    1
   7.5000000000e-01   1.0000000000e+00
 Atom Cl3     Shell    11 S    6
   2.5180100000e+04   1.8329598480e-03
   3.7803500000e+03   1.4034198830e-02
   8.6047400000e+02   6.9097394260e-02
   2.4214500000e+02   2.3745198030e-01
   7.7334900000e+01   4.8303395990e-01
   2.6247000000e+01   3.3985597180e-01
 Atom Cl3     Shell    12 SP   6
   4.9176500000e+02  -2.2973914170e-03   3.9894008790e-03
   1.1698400000e+02  -3.0713718940e-02   3.0317706680e-02
   3.7415300000e+01  -1.1252806940e-01   1.2988002860e-01
   1.3783400000e+01   4.5016327760e-02   3.2795107230e-01
   5.4521500000e+00   5.8935336340e-01   4.5352710000e-01
   2.2258800000e+00   4.6520628680e-01   2.5215405560e-01
 Atom Cl3     Shell    13 SP   3
   3.1864900000e+00  -2.5182802800e-01  -1.4299314720e-02
   1.1442700000e+00   6.1589251410e-02   3.2357233310e-01
   4.2037700000e-01   1.0601843280e+00   7.4350776530e-01
 Atom Cl3     Shell    14 SP   1
   1.4265700000e-01   1.0000000000e+00   1.0000000000e+00
 Atom Cl3     Shell    15 D    1
   7.5000000000e-01   1.0000000000e+00
 Atom Cl4     Shell    16 S    6
   2.5180100000e+04   1.8329598480e-03
   3.7803500000e+03   1.4034198830e-02
   8.6047400000e+02   6.9097394260e-02
   2.4214500000e+02   2.3745198030e-01
   7.7334900000e+01   4.8303395990e-01
   2.6247000000e+01   3.3985597180e-01
 Atom Cl4     Shell    17 SP   6
   4.9176500000e+02  -2.2973914170e-03   3.9894008790e-03
   1.1698400000e+02  -3.0713718940e-02   3.0317706680e-02
   3.7415300000e+01  -1.1252806940e-01   1.2988002860e-01
   1.3783400000e+01   4.5016327760e-02   3.2795107230e-01
   5.4521500000e+00   5.8935336340e-01   4.5352710000e-01
   2.2258800000e+00   4.6520628680e-01   2.5215405560e-01
 Atom Cl4     Shell    18 SP   3
   3.1864900000e+00  -2.5182802800e-01  -1.4299314720e-02
   1.1442700000e+00   6.1589251410e-02   3.2357233310e-01
   4.2037700000e-01   1.0601843280e+00   7.4350776530e-01
 Atom Cl4     Shell    19 SP   1
   1.4265700000e-01   1.0000000000e+00   1.0000000000e+00
 Atom Cl4     Shell    20 D    1
   7.5000000000e-01   1.0000000000e+00
 Atom Cl5     Shell    21 S    6
   2.5180100000e+04   1.8329598480e-03
   3.7803500000e+03   1.4034198830e-02
   8.6047400000e+02   6.9097394260e-02
   2.4214500000e+02   2.3745198030e-01
   7.7334900000e+01   4.8303395990e-01
   2.6247000000e+01   3.3985597180e-01
 Atom Cl5     Shell    22 SP   6
   4.9176500000e+02  -2.2973914170e-03   3.9894008790e-03
   1.1698400000e+02  -3.0713718940e-02   3.0317706680e-02
   3.7415300000e+01  -1.1252806940e-01   1.2988002860e-01
   1.3783400000e+01   4.5016327760e-02   3.2795107230e-01
   5.4521500000e+00   5.8935336340e-01   4.5352710000e-01
   2.2258800000e+00   4.6520628680e-01   2.5215405560e-01
 Atom Cl5     Shell    23 SP   3
   3.1864900000e+00  -2.5182802800e-01  -1.4299314720e-02
   1.1442700000e+00   6.1589251410e-02   3.2357233310e-01
   4.2037700000e-01   1.0601843280e+00   7.4350776530e-01
 Atom Cl5     Shell    24 SP   1
   1.4265700000e-01   1.0000000000e+00   1.0000000000e+00
 Atom Cl5     Shell    25 D    1
   7.5000000000e-01   1.0000000000e+00
 Atom Cl6     Shell    26 S    6
   2.5180100000e+04   1.8329598480e-03
   3.7803500000e+03   1.4034198830e-02
   8.6047400000e+02   6.9097394260e-02
   2.4214500000e+02   2.3745198030e-01
   7.7334900000e+01   4.8303395990e-01
   2.6247000000e+01   3.3985597180e-01
 Atom Cl6     Shell    27 SP   6
   4.9176500000e+02  -2.2973914170e-03   3.9894008790e-03
   1.1698400000e+02  -3.0713718940e-02   3.0317706680e-02
   3.7415300000e+01  -1.1252806940e-01   1.2988002860e-01
   1.3783400000e+01   4.5016327760e-02   3.2795107230e-01
   5.4521500000e+00   5.8935336340e-01   4.5352710000e-01
   2.2258800000e+00   4.6520628680e-01   2.5215405560e-01
 Atom Cl6     Shell    28 SP   3
   3.1864900000e+00  -2.5182802800e-01  -1.4299314720e-02
   1.1442700000e+00   6.1589251410e-02   3.2357233310e-01
   4.2037700000e-01   1.0601843280e+00   7.4350776530e-01
 Atom Cl6     Shell    29 SP   1
   1.4265700000e-01   1.0000000000e+00   1.0000000000e+00
 Atom Cl6     Shell    30 D    1
   7.5000000000e-01   1.0000000000e+00

  Molecular Orbital Coefficients:
                           1         2         3         4         5
                           O         O         O         O         O    
     Eigenvalues --   -26.06887 -24.03524 -24.03521 -22.99691 -22.35826
    1 P1      .S        0.04209  -0.00000  -0.00000   0.00000   0.00499
    2 P1      .S       -0.18963   0.00000   0.00000   0.00000  -0.02357
    3 P1      .X       -0.00000  -0.07090  -0.00000   0.00000  -0.00000
    4 P1      .Y       -0.00000   0.00000  -0.07090  -0.00000  -0.00000
    5 P1      .Z       -0.00000  -0.00000  -0.00000  -0.07215   0.00000
    6 P1      .S        0.38290  -0.00001   0.00000   0.00000   0.04322
    7 P1      .X        0.00000   0.17138   0.00000  -0.00000   0.00000
    8 P1      .Y        0.00000  -0.00000   0.17138   0.00000   0.00000
    9 P1      .Z        0.00000   0.00000   0.00000   0.17577  -0.00000
   10 P1      .S        0.09584   0.00000  -0.00000  -0.00000   0.03283
   11 P1      .X        0.00000  -0.01409  -0.00000  -0.00000  -0.00000
   12 P1      .Y       -0.00000   0.00000  -0.01409  -0.00000   0.00000
   13 P1      .Z       -0.00000   0.00000  -0.00000   0.01275  -0.00000
   14 P1      .XX       0.00873   0.03363   0.00000   0.00000  -0.02652
   15 P1      .YY       0.00873  -0.03363  -0.00000   0.00000  -0.02652
   16 P1      .ZZ      -0.00046  -0.00000   0.00000   0.00000   0.05582
   17 P1      .XY       0.00000   0.00000  -0.03883  -0.00000  -0.00000
   18 P1      .XZ      -0.00000   0.00000   0.00000   0.00000  -0.00000
   19 P1      .YZ      -0.00000   0.00000  -0.00000  -0.00000   0.00000
   20 Cl2     .S        0.03307   0.06699   0.00000  -0.00000  -0.02722
   21 Cl2     .S       -0.14802  -0.30173  -0.00000   0.00000   0.12279
   22 Cl2     .X        0.03100   0.03083   0.00000  -0.00000  -0.00127
   23 Cl2     .Y        0.00000   0.00000  -0.00281   0.00000  -0.00000
   24 Cl2     .Z       -0.00000   0.00000   0.00000  -0.00945   0.00000
   25 Cl2     .S        0.29378   0.60387   0.00000  -0.00000  -0.24864
   26 Cl2     .X       -0.07321  -0.07402  -0.00000   0.00000   0.00507
   27 Cl2     .Y       -0.00000  -0.00000   0.00632  -0.00000   0.00000
   28 Cl2     .Z        0.00000  -0.00000  -0.00000   0.02243  -0.00000
   29 Cl2     .S        0.09216   0.24801   0.00000   0.00000  -0.11506
   30 Cl2     .X       -0.00603  -0.02194  -0.00000  -0.00000   0.00852
   31 Cl2     .Y        0.00000  -0.00000   0.00311   0.00000  -0.00000
   32 Cl2     .Z        0.00000   0.00000   0.00000   0.00228   0.00000
   33 Cl2     .XX       0.01800   0.01695   0.00000  -0.00000  -0.00376
   34 Cl2     .YY      -0.00796  -0.01297  -0.00000  -0.00000   0.00294
   35 Cl2     .ZZ      -0.00831  -0.01436  -0.00000  -0.00000   0.00653
   36 Cl2     .XY      -0.00000   0.00000  -0.00161  -0.00000   0.00000
   37 Cl2     .XZ      -0.00000   0.00000  -0.00000  -0.00510  -0.00000
   38 Cl2     .YZ       0.00000   0.00000  -0.00000   0.00000   0.00000
   39 Cl3     .S        0.03307  -0.03349   0.05801  -0.00000  -0.02722
   40 Cl3     .S       -0.14802   0.15087  -0.26130   0.00000   0.12279
   41 Cl3     .X       -0.01550   0.00560  -0.01457   0.00000   0.00063
   42 Cl3     .Y        0.02684  -0.01457   0.02242  -0.00000  -0.00110
   43 Cl3     .Z        0.00000  -0.00000   0.00000  -0.00945   0.00000
   44 Cl3     .S        0.29377  -0.30194   0.52297  -0.00000  -0.24865
   45 Cl3     .X        0.03660  -0.01376   0.03479  -0.00000  -0.00254
   46 Cl3     .Y       -0.06340   0.03479  -0.05393   0.00000   0.00439
   47 Cl3     .Z       -0.00000   0.00000  -0.00000   0.02242  -0.00000
   48 Cl3     .S        0.09215  -0.12401   0.21478   0.00000  -0.11506
   49 Cl3     .X        0.00302  -0.00315   0.01084   0.00000  -0.00426
   50 Cl3     .Y       -0.00522   0.01084  -0.01567  -0.00000   0.00738
   51 Cl3     .Z        0.00000  -0.00000   0.00000   0.00228   0.00000
   52 Cl3     .XX      -0.00147   0.00379  -0.00415  -0.00000   0.00126
   53 Cl3     .YY       0.01151  -0.00578   0.00760   0.00000  -0.00209
   54 Cl3     .ZZ      -0.00831   0.00718  -0.01243  -0.00000   0.00653
   55 Cl3     .XY      -0.01298   0.00679  -0.01336  -0.00000   0.00335
   56 Cl3     .XZ       0.00000  -0.00000   0.00000   0.00255   0.00000
   57 Cl3     .YZ      -0.00000   0.00000  -0.00000  -0.00442  -0.00000
   58 Cl4     .S        0.03307  -0.03349  -0.05801  -0.00000  -0.02722
   59 Cl4     .S       -0.14802   0.15087   0.26130   0.00000   0.12279
   60 Cl4     .X       -0.01550   0.00560   0.01457   0.00000   0.00063
   61 Cl4     .Y       -0.02684   0.01457   0.02242   0.00000   0.00110
   62 Cl4     .Z       -0.00000  -0.00000  -0.00000  -0.00945   0.00000
   63 Cl4     .S        0.29377  -0.30194  -0.52297  -0.00000  -0.24865
   64 Cl4     .X        0.03660  -0.01376  -0.03479  -0.00000  -0.00254
   65 Cl4     .Y        0.06340  -0.03479  -0.05393  -0.00000  -0.00439
   66 Cl4     .Z        0.00000   0.00000   0.00000   0.02242  -0.00000
   67 Cl4     .S        0.09215  -0.12401  -0.21478   0.00000  -0.11506
   68 Cl4     .X        0.00302  -0.00315  -0.01084   0.00000  -0.00426
   69 Cl4     .Y        0.00522  -0.01084  -0.01567   0.00000  -0.00738
   70 Cl4     .Z        0.00000  -0.00000   0.00000   0.00228   0.00000
   71 Cl4     .XX      -0.00147   0.00379   0.00415  -0.00000   0.00126
   72 Cl4     .YY       0.01151  -0.00578  -0.00760  -0.00000  -0.00209
   73 Cl4     .ZZ      -0.00831   0.00718   0.01243  -0.00000   0.00653
   74 Cl4     .XY       0.01298  -0.00679  -0.01336   0.00000  -0.00335
   75 Cl4     .XZ       0.00000   0.00000  -0.00000   0.00255   0.00000
   76 Cl4     .YZ       0.00000   0.00000  -0.00000   0.00442   0.00000
   77 Cl5     .S        0.02097  -0.00000  -0.00000   0.05713   0.05135
   78 Cl5     .S       -0.09444   0.00000   0.00000  -0.25817  -0.23225
   79 Cl5     .X        0.00000  -0.00594  -0.00000   0.00000   0.00000
   80 Cl5     .Y       -0.00000   0.00000  -0.00594   0.00000  -0.00000
   81 Cl5     .Z        0.02301  -0.00000  -0.00000   0.02541   0.01560
   82 Cl5     .S        0.18288  -0.00001  -0.00000   0.51232   0.46196
   83 Cl5     .X       -0.00000   0.01385   0.00000  -0.00000  -0.00000
   84 Cl5     .Y        0.00000  -0.00000   0.01385  -0.00000  -0.00000
   85 Cl5     .Z       -0.05285   0.00000   0.00000  -0.06060  -0.03938
   86 Cl5     .S        0.05862  -0.00000   0.00000   0.21141   0.20177
   87 Cl5     .X        0.00000   0.00321   0.00000  -0.00000  -0.00000
   88 Cl5     .Y        0.00000  -0.00000   0.00321   0.00000  -0.00000
   89 Cl5     .Z       -0.00692  -0.00000  -0.00000  -0.01750  -0.01748
   90 Cl5     .XX      -0.00578   0.00089   0.00000  -0.01135  -0.00967
   91 Cl5     .YY      -0.00578  -0.00089  -0.00000  -0.01135  -0.00967
   92 Cl5     .ZZ       0.01215  -0.00000  -0.00000   0.01252   0.01088
   93 Cl5     .XY       0.00000   0.00000  -0.00102  -0.00000  -0.00000
   94 Cl5     .XZ       0.00000  -0.00377  -0.00000   0.00000   0.00000
   95 Cl5     .YZ       0.00000   0.00000  -0.00377   0.00000  -0.00000
   96 Cl6     .S        0.02097  -0.00000  -0.00000  -0.05713   0.05135
   97 Cl6     .S       -0.09444   0.00000   0.00000   0.25817  -0.23225
   98 Cl6     .X        0.00000  -0.00594  -0.00000  -0.00000   0.00000
   99 Cl6     .Y        0.00000   0.00000  -0.00594  -0.00000  -0.00000
  100 Cl6     .Z       -0.02301   0.00000   0.00000   0.02541  -0.01560
  101 Cl6     .S        0.18288  -0.00001  -0.00000  -0.51232   0.46196
  102 Cl6     .X       -0.00000   0.01385   0.00000   0.00000  -0.00000
  103 Cl6     .Y       -0.00000  -0.00000   0.01385   0.00000   0.00000
  104 Cl6     .Z        0.05285  -0.00000  -0.00000  -0.06060   0.03938
  105 Cl6     .S        0.05862  -0.00000   0.00000  -0.21141   0.20177
  106 Cl6     .X        0.00000   0.00321   0.00000   0.00000  -0.00000
  107 Cl6     .Y        0.00000  -0.00000   0.00321  -0.00000  -0.00000
  108 Cl6     .Z        0.00692   0.00000   0.00000  -0.01750   0.01748
  109 Cl6     .XX      -0.00578   0.00089   0.00000   0.01135  -0.00967
  110 Cl6     .YY      -0.00578  -0.00089  -0.00000   0.01135  -0.00967
  111 Cl6     .ZZ       0.01215  -0.00000   0.00000  -0.01252   0.01088
  112 Cl6     .XY      -0.00000   0.00000  -0.00102   0.00000  -0.00000
  113 Cl6     .XZ      -0.00000   0.00377   0.00000   0.00000  -0.00000
  114 Cl6     .YZ       0.00000  -0.00000   0.00377   0.00000   0.00000
                           6         7         8         9        10
                           O         O         O         O         O    
     Eigenvalues --   -17.84367 -13.89062 -13.89058 -13.46622 -11.05882
    1 P1      .S        0.05442  -0.00000  -0.00000  -0.00000   0.00000
    2 P1      .S       -0.24247   0.00000   0.00000  -0.00000  -0.00000
    3 P1      .X       -0.00000  -0.16385  -0.00000   0.00000   0.00000
    4 P1      .Y       -0.00000   0.00000  -0.16385   0.00000   0.00000
    5 P1      .Z       -0.00000  -0.00000  -0.00000  -0.16223   0.00000
    6 P1      .S        0.56446  -0.00001   0.00000  -0.00000   0.00000
    7 P1      .X        0.00000   0.44341   0.00000  -0.00000  -0.00000
    8 P1      .Y        0.00000  -0.00000   0.44341  -0.00000  -0.00000
    9 P1      .Z       -0.00000   0.00000   0.00000   0.43738  -0.00001
   10 P1      .S        0.24875  -0.00000  -0.00000   0.00000  -0.00000
   11 P1      .X        0.00000   0.12598   0.00000   0.00000  -0.00000
   12 P1      .Y        0.00000  -0.00000   0.12598  -0.00000   0.00000
   13 P1      .Z        0.00000  -0.00000   0.00000   0.18142   0.00002
   14 P1      .XX      -0.00011   0.03062   0.00000  -0.00000  -0.00000
   15 P1      .YY      -0.00011  -0.03062  -0.00000  -0.00000   0.00000
   16 P1      .ZZ      -0.00925  -0.00000  -0.00000   0.00000  -0.00000
   17 P1      .XY      -0.00000   0.00000  -0.03536   0.00000   0.00000
   18 P1      .XZ      -0.00000   0.00000  -0.00000   0.00000   0.07868
   19 P1      .YZ      -0.00000  -0.00000   0.00000  -0.00000  -0.00000
   20 Cl2     .S       -0.02607  -0.02103  -0.00000   0.00000  -0.00000
   21 Cl2     .S        0.11899   0.09690   0.00000  -0.00000  -0.00000
   22 Cl2     .X        0.06520   0.17180   0.00000  -0.00000  -0.00000
   23 Cl2     .Y       -0.00000   0.00000  -0.05108   0.00000  -0.00000
   24 Cl2     .Z       -0.00000  -0.00000  -0.00000  -0.05944  -0.18470
   25 Cl2     .S       -0.24706  -0.20613  -0.00000   0.00000  -0.00000
   26 Cl2     .X       -0.15953  -0.43110  -0.00000   0.00000   0.00000
   27 Cl2     .Y        0.00000  -0.00000   0.12934  -0.00000   0.00000
   28 Cl2     .Z        0.00000   0.00000   0.00000   0.15121   0.47090
   29 Cl2     .S       -0.16142  -0.17878  -0.00000  -0.00000   0.00000
   30 Cl2     .X       -0.02432  -0.12990  -0.00000   0.00000  -0.00000
   31 Cl2     .Y       -0.00000  -0.00000   0.04150   0.00000   0.00000
   32 Cl2     .Z       -0.00000   0.00000  -0.00000   0.04304   0.25029
   33 Cl2     .XX       0.02422   0.04031   0.00000  -0.00000   0.00000
   34 Cl2     .YY      -0.00263  -0.00911  -0.00000   0.00000   0.00000
   35 Cl2     .ZZ      -0.00315  -0.00744  -0.00000   0.00000   0.00000
   36 Cl2     .XY      -0.00000   0.00000  -0.01476   0.00000  -0.00000
   37 Cl2     .XZ       0.00000  -0.00000  -0.00000  -0.01718  -0.02225
   38 Cl2     .YZ       0.00000  -0.00000   0.00000   0.00000  -0.00000
   39 Cl3     .S       -0.02607   0.01052  -0.01821   0.00000   0.00000
   40 Cl3     .S        0.11899  -0.04845   0.08392  -0.00000   0.00000
   41 Cl3     .X       -0.03260   0.00465  -0.09651   0.00000  -0.00000
   42 Cl3     .Y        0.05647  -0.09651   0.11608  -0.00000  -0.00000
   43 Cl3     .Z       -0.00000  -0.00000  -0.00000  -0.05943   0.09235
   44 Cl3     .S       -0.24706   0.10307  -0.17852   0.00000   0.00000
   45 Cl3     .X        0.07976  -0.01078   0.24268  -0.00000   0.00000
   46 Cl3     .Y       -0.13815   0.24268  -0.29099   0.00000   0.00000
   47 Cl3     .Z        0.00000   0.00000   0.00000   0.15120  -0.23544
   48 Cl3     .S       -0.16142   0.08939  -0.15484  -0.00000  -0.00000
   49 Cl3     .X        0.01216  -0.00135   0.07422  -0.00000   0.00000
   50 Cl3     .Y       -0.02106   0.07422  -0.08705   0.00000   0.00000
   51 Cl3     .Z       -0.00000  -0.00000  -0.00000   0.04303  -0.12514
   52 Cl3     .XX       0.00409   0.00796   0.00835   0.00000   0.00000
   53 Cl3     .YY       0.01751  -0.02357   0.01868  -0.00000   0.00000
   54 Cl3     .ZZ      -0.00315   0.00372  -0.00645   0.00000   0.00000
   55 Cl3     .XY      -0.01342   0.00597  -0.02509   0.00000  -0.00000
   56 Cl3     .XZ      -0.00000   0.00000   0.00000   0.00859  -0.00302
   57 Cl3     .YZ       0.00000  -0.00000  -0.00000  -0.01487   0.01110
   58 Cl4     .S       -0.02607   0.01052   0.01821   0.00000  -0.00000
   59 Cl4     .S        0.11899  -0.04845  -0.08392   0.00000   0.00000
   60 Cl4     .X       -0.03260   0.00465   0.09651   0.00000   0.00000
   61 Cl4     .Y       -0.05647   0.09651   0.11608   0.00000  -0.00000
   62 Cl4     .Z       -0.00000  -0.00000   0.00000  -0.05943   0.09235
   63 Cl4     .S       -0.24706   0.10307   0.17852   0.00000  -0.00000
   64 Cl4     .X        0.07976  -0.01078  -0.24268  -0.00000  -0.00000
   65 Cl4     .Y        0.13815  -0.24268  -0.29099  -0.00000   0.00000
   66 Cl4     .Z        0.00000   0.00000  -0.00000   0.15120  -0.23544
   67 Cl4     .S       -0.16142   0.08939   0.15484  -0.00000   0.00000
   68 Cl4     .X        0.01216  -0.00135  -0.07422  -0.00000   0.00000
   69 Cl4     .Y        0.02106  -0.07422  -0.08705  -0.00000   0.00000
   70 Cl4     .Z       -0.00000   0.00000  -0.00000   0.04303  -0.12514
   71 Cl4     .XX       0.00409   0.00796  -0.00835   0.00000   0.00000
   72 Cl4     .YY       0.01751  -0.02357  -0.01868  -0.00000   0.00000
   73 Cl4     .ZZ      -0.00315   0.00372   0.00645   0.00000  -0.00000
   74 Cl4     .XY       0.01342  -0.00597  -0.02509  -0.00000   0.00000
   75 Cl4     .XZ      -0.00000  -0.00000   0.00000   0.00859  -0.00302
   76 Cl4     .YZ      -0.00000  -0.00000   0.00000   0.01487  -0.01110
   77 Cl5     .S       -0.02476   0.00000  -0.00000  -0.02082   0.00000
   78 Cl5     .S        0.11291  -0.00000   0.00000   0.09580  -0.00000
   79 Cl5     .X       -0.00000  -0.03467  -0.00000  -0.00000  -0.10507
   80 Cl5     .Y       -0.00000   0.00000  -0.03467  -0.00000   0.00000
   81 Cl5     .Z        0.04432  -0.00000  -0.00000   0.13320  -0.00000
   82 Cl5     .S       -0.23186   0.00000   0.00000  -0.20190   0.00000
   83 Cl5     .X        0.00000   0.08678   0.00000   0.00000   0.26324
   84 Cl5     .Y        0.00000  -0.00000   0.08678   0.00000  -0.00000
   85 Cl5     .Z       -0.10690   0.00000   0.00000  -0.33055   0.00001
   86 Cl5     .S       -0.14402   0.00000   0.00000  -0.18355  -0.00001
   87 Cl5     .X        0.00000   0.02663   0.00000   0.00000   0.14992
   88 Cl5     .Y       -0.00000  -0.00000   0.02663   0.00000  -0.00000
   89 Cl5     .Z       -0.01499  -0.00000   0.00000  -0.09472   0.00001
   90 Cl5     .XX      -0.00166  -0.00022  -0.00000  -0.00568   0.00343
   91 Cl5     .YY      -0.00166   0.00022   0.00000  -0.00568  -0.00343
   92 Cl5     .ZZ       0.01813  -0.00000   0.00000   0.03136  -0.00000
   93 Cl5     .XY       0.00000  -0.00000   0.00025   0.00000   0.00000
   94 Cl5     .XZ       0.00000  -0.01259  -0.00000   0.00000  -0.01723
   95 Cl5     .YZ       0.00000   0.00000  -0.01259  -0.00000   0.00000
   96 Cl6     .S       -0.02476   0.00000   0.00000   0.02082  -0.00000
   97 Cl6     .S        0.11291  -0.00000  -0.00000  -0.09580   0.00000
   98 Cl6     .X       -0.00000  -0.03467  -0.00000   0.00000   0.10507
   99 Cl6     .Y       -0.00000   0.00000  -0.03467   0.00000  -0.00000
  100 Cl6     .Z       -0.04432   0.00000   0.00000   0.13320  -0.00000
  101 Cl6     .S       -0.23186   0.00000   0.00000   0.20190  -0.00000
  102 Cl6     .X        0.00000   0.08678   0.00000  -0.00000  -0.26324
  103 Cl6     .Y        0.00000  -0.00000   0.08678  -0.00000   0.00000
  104 Cl6     .Z        0.10690  -0.00000  -0.00000  -0.33055   0.00001
  105 Cl6     .S       -0.14402   0.00000   0.00000   0.18355   0.00001
  106 Cl6     .X        0.00000   0.02663   0.00000  -0.00000  -0.14992
  107 Cl6     .Y       -0.00000  -0.00000   0.02663   0.00000   0.00000
  108 Cl6     .Z        0.01499   0.00000   0.00000  -0.09472   0.00001
  109 Cl6     .XX      -0.00166  -0.00022  -0.00000   0.00568  -0.00343
  110 Cl6     .YY      -0.00166   0.00022   0.00000   0.00568   0.00343
  111 Cl6     .ZZ       0.01813  -0.00000  -0.00000  -0.03136   0.00000
  112 Cl6     .XY       0.00000  -0.00000   0.00025  -0.00000  -0.00000
  113 Cl6     .XZ      -0.00000   0.01259   0.00000   0.00000  -0.01723
  114 Cl6     .YZ       0.00000  -0.00000   0.01259  -0.00000   0.00000
                          11        12        13        14        15
                           O         O         O         O         O    
     Eigenvalues --   -11.05878 -10.71911 -10.71909 -10.05572  -9.95519
    1 P1      .S       -0.00000   0.00000   0.00000  -0.00259   0.00000
    2 P1      .S       -0.00000  -0.00000  -0.00000   0.01211   0.00000
    3 P1      .X       -0.00000   0.00000   0.00514   0.00000  -0.00000
    4 P1      .Y        0.00000   0.00514  -0.00000   0.00000   0.00000
    5 P1      .Z        0.00000  -0.00000   0.00000  -0.00000  -0.00000
    6 P1      .S       -0.00000  -0.00000   0.00000  -0.02568   0.00000
    7 P1      .X        0.00000  -0.00000  -0.03269  -0.00000   0.00000
    8 P1      .Y       -0.00000  -0.03269   0.00000  -0.00000  -0.00000
    9 P1      .Z       -0.00000  -0.00000  -0.00000   0.00000   0.00000
   10 P1      .S        0.00000   0.00000   0.00000  -0.04685  -0.00000
   11 P1      .X       -0.00000   0.00000   0.22711   0.00000  -0.00000
   12 P1      .Y        0.00000   0.22713  -0.00000  -0.00000   0.00001
   13 P1      .Z        0.00000   0.00000   0.00000  -0.00000  -0.00000
   14 P1      .XX       0.00000  -0.00000  -0.07812   0.07082  -0.00000
   15 P1      .YY      -0.00000   0.00000   0.07812   0.07082  -0.00000
   16 P1      .ZZ       0.00000   0.00000   0.00000  -0.14599   0.00000
   17 P1      .XY      -0.00000   0.09021  -0.00000   0.00000  -0.00000
   18 P1      .XZ       0.00000  -0.00000  -0.00000  -0.00000   0.00000
   19 P1      .YZ       0.07868   0.00000   0.00000   0.00000  -0.00000
   20 Cl2     .S       -0.00000   0.00000   0.00075   0.00039  -0.00000
   21 Cl2     .S        0.00000   0.00000   0.00014  -0.00170  -0.00000
   22 Cl2     .X        0.00000  -0.00000  -0.08833   0.10081  -0.00000
   23 Cl2     .Y        0.00000  -0.21056   0.00000  -0.00000  -0.17090
   24 Cl2     .Z       -0.00000   0.00000   0.00000  -0.00000   0.00000
   25 Cl2     .S       -0.00000   0.00000   0.01855   0.00127  -0.00000
   26 Cl2     .X       -0.00000   0.00000   0.22966  -0.26382   0.00000
   27 Cl2     .Y       -0.00000   0.54204  -0.00000   0.00000   0.44122
   28 Cl2     .Z        0.00000  -0.00000  -0.00000   0.00000  -0.00000
   29 Cl2     .S        0.00000  -0.00000  -0.12259   0.02133   0.00000
   30 Cl2     .X       -0.00000   0.00000   0.16594  -0.13754   0.00000
   31 Cl2     .Y       -0.00000   0.24834  -0.00000   0.00000   0.22793
   32 Cl2     .Z        0.00000  -0.00000  -0.00000   0.00000   0.00000
   33 Cl2     .XX       0.00000  -0.00000  -0.01586   0.01581  -0.00000
   34 Cl2     .YY      -0.00000   0.00000   0.00911  -0.00037  -0.00000
   35 Cl2     .ZZ       0.00000   0.00000   0.00693  -0.00827   0.00000
   36 Cl2     .XY       0.00000  -0.02283   0.00000  -0.00000  -0.01037
   37 Cl2     .XZ      -0.00000   0.00000   0.00000  -0.00000  -0.00000
   38 Cl2     .YZ       0.00338   0.00000   0.00000  -0.00000   0.00000
   39 Cl3     .S        0.00000   0.00065  -0.00037   0.00039   0.00000
   40 Cl3     .S       -0.00000   0.00012  -0.00007  -0.00170   0.00000
   41 Cl3     .X        0.00000  -0.05292  -0.18000  -0.05041   0.14801
   42 Cl3     .Y        0.00000  -0.11889  -0.05292   0.08731   0.08545
   43 Cl3     .Z       -0.15995  -0.00000  -0.00000  -0.00000   0.00000
   44 Cl3     .S        0.00000   0.01607  -0.00928   0.00127   0.00000
   45 Cl3     .X       -0.00000   0.13526   0.46395   0.13191  -0.38211
   46 Cl3     .Y       -0.00000   0.30776   0.13526  -0.22848  -0.22062
   47 Cl3     .Z        0.40780   0.00000   0.00000   0.00000  -0.00000
   48 Cl3     .S       -0.00000  -0.10617   0.06129   0.02133  -0.00000
   49 Cl3     .X       -0.00000   0.03567   0.22774   0.06877  -0.19740
   50 Cl3     .Y        0.00000   0.18654   0.03568  -0.11912  -0.11397
   51 Cl3     .Z        0.21675   0.00000   0.00000   0.00000  -0.00000
   52 Cl3     .XX       0.00000   0.01104   0.01339   0.00367  -0.00778
   53 Cl3     .YY       0.00000  -0.01689  -0.01002   0.01177   0.00778
   54 Cl3     .ZZ       0.00000   0.00600  -0.00346  -0.00827   0.00000
   55 Cl3     .XY       0.00000   0.00510  -0.01613  -0.00809   0.00518
   56 Cl3     .XZ       0.01110  -0.00000   0.00000   0.00000   0.00000
   57 Cl3     .YZ      -0.01584  -0.00000  -0.00000  -0.00000   0.00000
   58 Cl4     .S       -0.00000  -0.00065  -0.00037   0.00039  -0.00000
   59 Cl4     .S        0.00000  -0.00012  -0.00007  -0.00170  -0.00000
   60 Cl4     .X       -0.00000   0.05292  -0.18000  -0.05041  -0.14801
   61 Cl4     .Y       -0.00000  -0.11889   0.05292  -0.08731   0.08545
   62 Cl4     .Z        0.15995  -0.00000   0.00000  -0.00000   0.00000
   63 Cl4     .S       -0.00000  -0.01607  -0.00928   0.00127  -0.00000
   64 Cl4     .X        0.00000  -0.13526   0.46395   0.13191   0.38211
   65 Cl4     .Y        0.00000   0.30776  -0.13526   0.22848  -0.22062
   66 Cl4     .Z       -0.40780   0.00000  -0.00000   0.00000  -0.00000
   67 Cl4     .S        0.00000   0.10617   0.06129   0.02133   0.00000
   68 Cl4     .X        0.00000  -0.03567   0.22774   0.06877   0.19740
   69 Cl4     .Y        0.00000   0.18654  -0.03568   0.11912  -0.11397
   70 Cl4     .Z       -0.21675   0.00000  -0.00000   0.00000  -0.00000
   71 Cl4     .XX      -0.00000  -0.01104   0.01339   0.00367   0.00778
   72 Cl4     .YY      -0.00000   0.01689  -0.01002   0.01177  -0.00778
   73 Cl4     .ZZ      -0.00000  -0.00600  -0.00346  -0.00827  -0.00000
   74 Cl4     .XY       0.00000   0.00510   0.01613   0.00809   0.00518
   75 Cl4     .XZ      -0.01110  -0.00000  -0.00000   0.00000  -0.00000
   76 Cl4     .YZ      -0.01584  -0.00000   0.00000   0.00000   0.00000
   77 Cl5     .S        0.00000  -0.00000   0.00000   0.00410  -0.00000
   78 Cl5     .S        0.00000   0.00000  -0.00000  -0.01778   0.00000
   79 Cl5     .X       -0.00000  -0.00000  -0.02314  -0.00000  -0.00000
   80 Cl5     .Y       -0.10507  -0.02314   0.00000  -0.00000  -0.00000
   81 Cl5     .Z       -0.00000   0.00000  -0.00000  -0.16839   0.00000
   82 Cl5     .S        0.00000   0.00000   0.00000   0.04855  -0.00000
   83 Cl5     .X        0.00000   0.00000   0.05873   0.00001   0.00000
   84 Cl5     .Y        0.26324   0.05873  -0.00000   0.00000   0.00000
   85 Cl5     .Z        0.00000  -0.00000   0.00000   0.43410  -0.00000
   86 Cl5     .S       -0.00000  -0.00000  -0.00000   0.00215   0.00000
   87 Cl5     .X        0.00000   0.00000   0.01435   0.00001   0.00000
   88 Cl5     .Y        0.14992   0.01435  -0.00000   0.00000   0.00000
   89 Cl5     .Z        0.00000   0.00000   0.00000   0.22378  -0.00000
   90 Cl5     .XX       0.00000  -0.00000  -0.00385   0.00786  -0.00000
   91 Cl5     .YY      -0.00000   0.00000   0.00385   0.00786  -0.00000
   92 Cl5     .ZZ      -0.00000   0.00000   0.00000  -0.03113   0.00000
   93 Cl5     .XY      -0.00396   0.00444  -0.00000   0.00000  -0.00000
   94 Cl5     .XZ      -0.00000  -0.00000  -0.00164  -0.00000  -0.00000
   95 Cl5     .YZ      -0.01723  -0.00164   0.00000   0.00000   0.00000
   96 Cl6     .S       -0.00000  -0.00000   0.00000   0.00410  -0.00000
   97 Cl6     .S       -0.00000   0.00000  -0.00000  -0.01778   0.00000
   98 Cl6     .X        0.00000  -0.00000  -0.02314  -0.00000  -0.00000
   99 Cl6     .Y        0.10507  -0.02314   0.00000  -0.00000  -0.00000
  100 Cl6     .Z       -0.00000  -0.00000   0.00000   0.16839  -0.00000
  101 Cl6     .S       -0.00000   0.00000   0.00000   0.04855  -0.00000
  102 Cl6     .X       -0.00000   0.00000   0.05873   0.00001   0.00000
  103 Cl6     .Y       -0.26324   0.05873  -0.00000   0.00000   0.00000
  104 Cl6     .Z        0.00000   0.00000  -0.00000  -0.43410   0.00000
  105 Cl6     .S        0.00000  -0.00000  -0.00000   0.00215   0.00000
  106 Cl6     .X       -0.00000   0.00000   0.01435   0.00001   0.00000
  107 Cl6     .Y       -0.14992   0.01435  -0.00000   0.00000   0.00000
  108 Cl6     .Z        0.00000  -0.00000  -0.00000  -0.22378   0.00000
  109 Cl6     .XX      -0.00000  -0.00000  -0.00385   0.00786  -0.00000
  110 Cl6     .YY       0.00000   0.00000   0.00385   0.00786  -0.00000
  111 Cl6     .ZZ       0.00000   0.00000   0.00000  -0.03113   0.00000
  112 Cl6     .XY       0.00396   0.00444  -0.00000   0.00000  -0.00000
  113 Cl6     .XZ      -0.00000   0.00000   0.00164   0.00000   0.00000
  114 Cl6     .YZ      -0.01723   0.00164  -0.00000  -0.00000  -0.00000
                          16        17        18        19        20
                           O         O         O         O         O    
     Eigenvalues --    -9.49577  -9.07141  -9.07137  -8.55303  -8.55299
    1 P1      .S        0.00000  -0.00000   0.00000  -0.00000  -0.00000
    2 P1      .S       -0.00000  -0.00000  -0.00000  -0.00000  -0.00000
    3 P1      .X       -0.00000  -0.00000   0.01673  -0.00000  -0.00000
    4 P1      .Y       -0.00000   0.01673   0.00000   0.00000  -0.00000
    5 P1      .Z        0.05255   0.00000   0.00000   0.00000  -0.00000
    6 P1      .S        0.00000  -0.00000   0.00000  -0.00000  -0.00000
    7 P1      .X        0.00000   0.00000  -0.05805   0.00000   0.00000
    8 P1      .Y        0.00000  -0.05805  -0.00000  -0.00000   0.00000
    9 P1      .Z       -0.16606  -0.00000  -0.00000   0.00000   0.00001
   10 P1      .S       -0.00000   0.00000  -0.00000   0.00000   0.00000
   11 P1      .X       -0.00000  -0.00000   0.05031  -0.00000  -0.00000
   12 P1      .Y        0.00000   0.05030   0.00000   0.00000   0.00000
   13 P1      .Z        0.05904   0.00000  -0.00000  -0.00000   0.00000
   14 P1      .XX      -0.00000   0.00000  -0.01285  -0.00000   0.00000
   15 P1      .YY      -0.00000  -0.00000   0.01284   0.00000  -0.00000
   16 P1      .ZZ       0.00000  -0.00000   0.00000  -0.00000  -0.00000
   17 P1      .XY      -0.00000   0.01483   0.00000  -0.00000   0.00000
   18 P1      .XZ      -0.00000   0.00000   0.00000  -0.00000   0.01426
   19 P1      .YZ      -0.00000   0.00000  -0.00000   0.01426   0.00000
   20 Cl2     .S       -0.00000   0.00000  -0.00405  -0.00000   0.00000
   21 Cl2     .S        0.00000  -0.00000   0.01519   0.00000  -0.00000
   22 Cl2     .X       -0.00000   0.00000  -0.04785  -0.00000   0.00000
   23 Cl2     .Y       -0.00000   0.05315   0.00000   0.00000   0.00000
   24 Cl2     .Z       -0.15594  -0.00000   0.00000  -0.00000   0.14990
   25 Cl2     .S       -0.00000   0.00000  -0.04783  -0.00000  -0.00000
   26 Cl2     .X        0.00000  -0.00000   0.12874   0.00000  -0.00000
   27 Cl2     .Y        0.00000  -0.13793  -0.00000  -0.00000  -0.00000
   28 Cl2     .Z        0.40383   0.00000  -0.00000   0.00000  -0.39365
   29 Cl2     .S        0.00000   0.00000  -0.01971  -0.00000   0.00000
   30 Cl2     .X        0.00000  -0.00000   0.06200   0.00000  -0.00000
   31 Cl2     .Y        0.00000  -0.07854  -0.00000  -0.00000  -0.00000
   32 Cl2     .Z        0.20888   0.00000  -0.00000   0.00000  -0.19822
   33 Cl2     .XX      -0.00000   0.00000  -0.01483  -0.00000   0.00000
   34 Cl2     .YY      -0.00000   0.00000  -0.00336   0.00000   0.00000
   35 Cl2     .ZZ      -0.00000  -0.00000   0.01044   0.00000  -0.00000
   36 Cl2     .XY      -0.00000   0.00114   0.00000  -0.00000   0.00000
   37 Cl2     .XZ      -0.00240  -0.00000   0.00000   0.00000  -0.00087
   38 Cl2     .YZ      -0.00000   0.00000  -0.00000   0.00368   0.00000
   39 Cl3     .S       -0.00000  -0.00351   0.00203   0.00000  -0.00000
   40 Cl3     .S        0.00000   0.01315  -0.00759   0.00000   0.00000
   41 Cl3     .X        0.00000   0.04373   0.02790  -0.00000  -0.00000
   42 Cl3     .Y       -0.00000  -0.02260   0.04373  -0.00000  -0.00000
   43 Cl3     .Z       -0.15595   0.00000  -0.00000   0.12982  -0.07495
   44 Cl3     .S       -0.00000  -0.04142   0.02391   0.00000  -0.00000
   45 Cl3     .X       -0.00000  -0.11547  -0.07127   0.00000   0.00000
   46 Cl3     .Y        0.00000   0.06206  -0.11546  -0.00000   0.00000
   47 Cl3     .Z        0.40385  -0.00000   0.00000  -0.34091   0.19682
   48 Cl3     .S       -0.00000  -0.01707   0.00986  -0.00000  -0.00000
   49 Cl3     .X       -0.00000  -0.06085  -0.04340  -0.00000  -0.00000
   50 Cl3     .Y        0.00000   0.02686  -0.06085   0.00000   0.00000
   51 Cl3     .Z        0.20889  -0.00000   0.00000  -0.17167   0.09911
   52 Cl3     .XX       0.00000  -0.00582   0.00237   0.00000   0.00000
   53 Cl3     .YY      -0.00000  -0.00993   0.00672   0.00000   0.00000
   54 Cl3     .ZZ       0.00000   0.00904  -0.00522   0.00000   0.00000
   55 Cl3     .XY       0.00000   0.00525  -0.00237   0.00000   0.00000
   56 Cl3     .XZ       0.00120   0.00000   0.00000   0.00197   0.00254
   57 Cl3     .YZ      -0.00208   0.00000   0.00000   0.00027   0.00197
   58 Cl4     .S       -0.00000   0.00351   0.00203  -0.00000  -0.00000
   59 Cl4     .S        0.00000  -0.01315  -0.00759  -0.00000   0.00000
   60 Cl4     .X        0.00000  -0.04373   0.02790   0.00000  -0.00000
   61 Cl4     .Y        0.00000  -0.02260  -0.04373   0.00000   0.00000
   62 Cl4     .Z       -0.15595  -0.00000  -0.00000  -0.12982  -0.07495
   63 Cl4     .S       -0.00000   0.04142   0.02391  -0.00000  -0.00000
   64 Cl4     .X       -0.00000   0.11547  -0.07127  -0.00000   0.00000
   65 Cl4     .Y       -0.00000   0.06206   0.11546   0.00000  -0.00000
   66 Cl4     .Z        0.40385   0.00000   0.00000   0.34091   0.19682
   67 Cl4     .S       -0.00000   0.01707   0.00986   0.00000   0.00000
   68 Cl4     .X       -0.00000   0.06085  -0.04340   0.00000   0.00000
   69 Cl4     .Y       -0.00000   0.02686   0.06085   0.00000  -0.00000
   70 Cl4     .Z        0.20889   0.00000   0.00000   0.17167   0.09911
   71 Cl4     .XX      -0.00000   0.00582   0.00237  -0.00000  -0.00000
   72 Cl4     .YY      -0.00000   0.00993   0.00672  -0.00000  -0.00000
   73 Cl4     .ZZ       0.00000  -0.00904  -0.00522  -0.00000   0.00000
   74 Cl4     .XY      -0.00000   0.00525   0.00237   0.00000  -0.00000
   75 Cl4     .XZ       0.00120  -0.00000  -0.00000  -0.00197   0.00254
   76 Cl4     .YZ       0.00208   0.00000  -0.00000   0.00027  -0.00197
   77 Cl5     .S       -0.00231   0.00000   0.00000  -0.00000   0.00000
   78 Cl5     .S        0.00905   0.00000   0.00000  -0.00000   0.00000
   79 Cl5     .X        0.00000   0.00000  -0.19672   0.00000  -0.17247
   80 Cl5     .Y        0.00000  -0.19672  -0.00000  -0.17247  -0.00000
   81 Cl5     .Z       -0.08779  -0.00000   0.00000  -0.00000   0.00000
   82 Cl5     .S       -0.02470   0.00000   0.00000  -0.00000   0.00000
   83 Cl5     .X       -0.00000  -0.00000   0.50407  -0.00000   0.44447
   84 Cl5     .Y       -0.00000   0.50407   0.00000   0.44447   0.00000
   85 Cl5     .Z        0.22835   0.00000  -0.00001   0.00000  -0.00000
   86 Cl5     .S       -0.02997  -0.00000  -0.00000   0.00000  -0.00001
   87 Cl5     .X        0.00000  -0.00000   0.27553  -0.00000   0.24725
   88 Cl5     .Y       -0.00000   0.27553   0.00000   0.24725   0.00000
   89 Cl5     .Z        0.12463   0.00000  -0.00000  -0.00000   0.00000
   90 Cl5     .XX       0.00695  -0.00000   0.00002   0.00000  -0.00344
   91 Cl5     .YY       0.00695   0.00000  -0.00002  -0.00000   0.00344
   92 Cl5     .ZZ      -0.02094  -0.00000   0.00000  -0.00000   0.00000
   93 Cl5     .XY       0.00000  -0.00002  -0.00000   0.00398   0.00000
   94 Cl5     .XZ       0.00000   0.00000  -0.01004   0.00000  -0.00606
   95 Cl5     .YZ       0.00000  -0.01004  -0.00000  -0.00606  -0.00000
   96 Cl6     .S        0.00231   0.00000   0.00000   0.00000  -0.00000
   97 Cl6     .S       -0.00905   0.00000   0.00000   0.00000  -0.00000
   98 Cl6     .X       -0.00000   0.00000  -0.19672  -0.00000   0.17247
   99 Cl6     .Y       -0.00000  -0.19672  -0.00000   0.17247   0.00000
  100 Cl6     .Z       -0.08779   0.00000  -0.00000  -0.00000   0.00000
  101 Cl6     .S        0.02470   0.00000   0.00000   0.00000  -0.00000
  102 Cl6     .X        0.00000  -0.00000   0.50407   0.00000  -0.44447
  103 Cl6     .Y        0.00000   0.50407   0.00000  -0.44447  -0.00000
  104 Cl6     .Z        0.22835  -0.00000   0.00001   0.00000  -0.00000
  105 Cl6     .S        0.02997  -0.00000  -0.00000  -0.00000   0.00001
  106 Cl6     .X       -0.00000  -0.00000   0.27553   0.00000  -0.24725
  107 Cl6     .Y        0.00000   0.27553   0.00000  -0.24725  -0.00000
  108 Cl6     .Z        0.12463  -0.00000   0.00000  -0.00000   0.00000
  109 Cl6     .XX      -0.00695  -0.00000   0.00002  -0.00000   0.00344
  110 Cl6     .YY      -0.00695   0.00000  -0.00002   0.00000  -0.00344
  111 Cl6     .ZZ       0.02094  -0.00000   0.00000   0.00000  -0.00000
  112 Cl6     .XY       0.00000  -0.00002  -0.00000  -0.00398  -0.00000
  113 Cl6     .XZ       0.00000  -0.00000   0.01004   0.00000  -0.00606
  114 Cl6     .YZ       0.00000   0.01004   0.00000  -0.00606  -0.00000
                          21        22        23        24        25
                           V         V         V         V         V    
     Eigenvalues --    -4.43321  -1.79600  -1.79598  -0.77447   6.08292
    1 P1      .S        0.05578  -0.00000  -0.00000  -0.00000  -0.00000
    2 P1      .S       -0.25085   0.00000   0.00000  -0.00000  -0.00000
    3 P1      .X       -0.00000   0.00000  -0.22891  -0.00000   0.21407
    4 P1      .Y       -0.00000  -0.22891  -0.00000   0.00000   0.00000
    5 P1      .Z       -0.00000   0.00000   0.00000  -0.25111  -0.00000
    6 P1      .S        0.66740  -0.00000  -0.00000  -0.00000  -0.00010
    7 P1      .X        0.00000  -0.00000   0.70101   0.00000  -1.04993
    8 P1      .Y        0.00000   0.70101   0.00000  -0.00000  -0.00000
    9 P1      .Z       -0.00000  -0.00000  -0.00000   0.78545   0.00000
   10 P1      .S        1.00656   0.00000   0.00000   0.00000   0.00017
   11 P1      .X        0.00000  -0.00000   1.14553   0.00000   2.03011
   12 P1      .Y        0.00000   1.14554   0.00000   0.00000   0.00000
   13 P1      .Z        0.00000   0.00000  -0.00000   1.19655  -0.00000
   14 P1      .XX      -0.01468   0.00000  -0.09048  -0.00000  -0.23264
   15 P1      .YY      -0.01468  -0.00000   0.09048   0.00000   0.23263
   16 P1      .ZZ      -0.02179  -0.00000   0.00000   0.00000  -0.00001
   17 P1      .XY      -0.00000   0.10448   0.00000  -0.00000   0.00000
   18 P1      .XZ       0.00000  -0.00000   0.00000   0.00000   0.00000
   19 P1      .YZ       0.00000  -0.00000  -0.00000  -0.00000  -0.00000
   20 Cl2     .S       -0.00870   0.00000  -0.01603  -0.00000  -0.00052
   21 Cl2     .S        0.04476  -0.00000   0.08534   0.00000   0.00045
   22 Cl2     .X       -0.12210   0.00000  -0.12658   0.00000   0.04624
   23 Cl2     .Y        0.00000   0.08071   0.00000  -0.00000   0.00000
   24 Cl2     .Z        0.00000  -0.00000  -0.00000   0.02509   0.00000
   25 Cl2     .S       -0.07776   0.00000  -0.14064  -0.00000  -0.00108
   26 Cl2     .X        0.32154  -0.00000   0.33952  -0.00000  -0.10079
   27 Cl2     .Y       -0.00000  -0.21048  -0.00000   0.00000  -0.00000
   28 Cl2     .Z       -0.00000   0.00000   0.00000  -0.06150   0.00000
   29 Cl2     .S       -0.23661   0.00000  -0.68339  -0.00000  -0.73208
   30 Cl2     .X        0.33322  -0.00000   0.59701   0.00000   0.18238
   31 Cl2     .Y       -0.00000  -0.28149  -0.00000  -0.00000  -0.00000
   32 Cl2     .Z       -0.00000  -0.00000   0.00000  -0.17573  -0.00000
   33 Cl2     .XX       0.03446  -0.00000   0.05929   0.00000  -0.20742
   34 Cl2     .YY      -0.00547   0.00000  -0.00614   0.00000   0.10271
   35 Cl2     .ZZ      -0.01287   0.00000  -0.01783  -0.00000   0.06978
   36 Cl2     .XY      -0.00000  -0.06788  -0.00000  -0.00000  -0.00000
   37 Cl2     .XZ      -0.00000   0.00000   0.00000  -0.03954  -0.00000
   38 Cl2     .YZ      -0.00000  -0.00000  -0.00000  -0.00000   0.00000
   39 Cl3     .S       -0.00870  -0.01388   0.00802   0.00000   0.00026
   40 Cl3     .S        0.04476   0.07391  -0.04267  -0.00000  -0.00022
   41 Cl3     .X        0.06105   0.08976   0.02889  -0.00000   0.07654
   42 Cl3     .Y       -0.10574  -0.07475   0.08976   0.00000   0.01750
   43 Cl3     .Z        0.00000   0.00000  -0.00000   0.02508  -0.00000
   44 Cl3     .S       -0.07776  -0.12179   0.07032   0.00000   0.00046
   45 Cl3     .X       -0.16077  -0.23816  -0.07298   0.00000  -0.23239
   46 Cl3     .Y        0.27846   0.20202  -0.23816  -0.00000  -0.07597
   47 Cl3     .Z       -0.00000  -0.00000   0.00000  -0.06149   0.00000
   48 Cl3     .S       -0.23660  -0.59185   0.34170  -0.00000   0.36610
   49 Cl3     .X       -0.16661  -0.38041  -0.06187  -0.00000  -0.07457
   50 Cl3     .Y        0.28857   0.37739  -0.38040   0.00000  -0.14833
   51 Cl3     .Z       -0.00000  -0.00000   0.00000  -0.17574   0.00000
   52 Cl3     .XX       0.00451   0.03431   0.03898   0.00000   0.05576
   53 Cl3     .YY       0.02448   0.01172  -0.06556  -0.00000  -0.00342
   54 Cl3     .ZZ      -0.01287  -0.01544   0.00892   0.00000  -0.03489
   55 Cl3     .XY      -0.01997  -0.04530  -0.01304   0.00000  -0.12309
   56 Cl3     .XZ       0.00000  -0.00000  -0.00000   0.01977   0.00000
   57 Cl3     .YZ       0.00000   0.00000   0.00000  -0.03425   0.00000
   58 Cl4     .S       -0.00870   0.01388   0.00802   0.00000   0.00026
   59 Cl4     .S        0.04476  -0.07391  -0.04267  -0.00000  -0.00022
   60 Cl4     .X        0.06105  -0.08976   0.02889  -0.00000   0.07654
   61 Cl4     .Y        0.10574  -0.07475  -0.08976  -0.00000  -0.01750
   62 Cl4     .Z        0.00000   0.00000  -0.00000   0.02508  -0.00000
   63 Cl4     .S       -0.07776   0.12179   0.07032   0.00000   0.00046
   64 Cl4     .X       -0.16077   0.23816  -0.07298   0.00000  -0.23239
   65 Cl4     .Y       -0.27846   0.20202   0.23816   0.00000   0.07597
   66 Cl4     .Z       -0.00000  -0.00000   0.00000  -0.06149   0.00000
   67 Cl4     .S       -0.23660   0.59185   0.34170  -0.00000   0.36610
   68 Cl4     .X       -0.16661   0.38041  -0.06187  -0.00000  -0.07457
   69 Cl4     .Y       -0.28857   0.37739   0.38040  -0.00000   0.14833
   70 Cl4     .Z       -0.00000  -0.00000   0.00000  -0.17574   0.00000
   71 Cl4     .XX       0.00451  -0.03431   0.03898   0.00000   0.05576
   72 Cl4     .YY       0.02448  -0.01172  -0.06556  -0.00000  -0.00342
   73 Cl4     .ZZ      -0.01287   0.01544   0.00892   0.00000  -0.03489
   74 Cl4     .XY       0.01997  -0.04530   0.01304  -0.00000   0.12309
   75 Cl4     .XZ       0.00000  -0.00000  -0.00000   0.01977  -0.00000
   76 Cl4     .YZ       0.00000  -0.00000  -0.00000   0.03425  -0.00000
   77 Cl5     .S       -0.00550   0.00000   0.00000  -0.01697  -0.00000
   78 Cl5     .S        0.02929   0.00000  -0.00000   0.08799   0.00001
   79 Cl5     .X        0.00000  -0.00000   0.03232   0.00000   0.03810
   80 Cl5     .Y        0.00000   0.03232   0.00000  -0.00000   0.00000
   81 Cl5     .Z       -0.10755   0.00000   0.00000  -0.13634  -0.00000
   82 Cl5     .S       -0.04596   0.00000   0.00000  -0.15577  -0.00005
   83 Cl5     .X       -0.00000   0.00000  -0.08198  -0.00000  -0.11748
   84 Cl5     .Y       -0.00000  -0.08198  -0.00000   0.00000  -0.00000
   85 Cl5     .Z        0.28041  -0.00000  -0.00000   0.35952   0.00000
   86 Cl5     .S       -0.17406  -0.00000  -0.00000  -0.61970   0.00002
   87 Cl5     .X       -0.00000   0.00000  -0.15409   0.00000  -0.17735
   88 Cl5     .Y       -0.00000  -0.15409  -0.00000  -0.00000  -0.00000
   89 Cl5     .Z        0.27172   0.00000   0.00000   0.60916   0.00002
   90 Cl5     .XX      -0.00727   0.00000  -0.00810  -0.01921  -0.01482
   91 Cl5     .YY      -0.00727  -0.00000   0.00810  -0.01921   0.01481
   92 Cl5     .ZZ       0.02577  -0.00000   0.00000   0.07520  -0.00001
   93 Cl5     .XY       0.00000   0.00935   0.00000   0.00000   0.00000
   94 Cl5     .XZ      -0.00000   0.00000  -0.02644   0.00000  -0.03838
   95 Cl5     .YZ      -0.00000  -0.02644  -0.00000  -0.00000  -0.00000
   96 Cl6     .S       -0.00550   0.00000   0.00000   0.01697  -0.00000
   97 Cl6     .S        0.02929  -0.00000  -0.00000  -0.08799   0.00001
   98 Cl6     .X        0.00000  -0.00000   0.03232  -0.00000   0.03810
   99 Cl6     .Y        0.00000   0.03232   0.00000   0.00000   0.00000
  100 Cl6     .Z        0.10755  -0.00000  -0.00000  -0.13634   0.00000
  101 Cl6     .S       -0.04596   0.00000   0.00000   0.15577  -0.00005
  102 Cl6     .X       -0.00000   0.00000  -0.08198   0.00000  -0.11748
  103 Cl6     .Y       -0.00000  -0.08198  -0.00000  -0.00000  -0.00000
  104 Cl6     .Z       -0.28041   0.00000   0.00000   0.35952  -0.00000
  105 Cl6     .S       -0.17406  -0.00000  -0.00000   0.61970   0.00002
  106 Cl6     .X       -0.00000   0.00000  -0.15409  -0.00000  -0.17735
  107 Cl6     .Y       -0.00000  -0.15409  -0.00000   0.00000  -0.00000
  108 Cl6     .Z       -0.27172  -0.00000  -0.00000   0.60916  -0.00002
  109 Cl6     .XX      -0.00727   0.00000  -0.00810   0.01921  -0.01482
  110 Cl6     .YY      -0.00727  -0.00000   0.00810   0.01921   0.01481
  111 Cl6     .ZZ       0.02577  -0.00000   0.00000  -0.07520  -0.00001
  112 Cl6     .XY       0.00000   0.00935   0.00000   0.00000   0.00000
  113 Cl6     .XZ       0.00000  -0.00000   0.02644   0.00000   0.03838
  114 Cl6     .YZ       0.00000   0.02644   0.00000  -0.00000   0.00000
                          26        27        28        29        30
                           V         V         V         V         V    
     Eigenvalues --     6.08295   6.76016   8.15532   8.99012   8.99016
    1 P1      .S       -0.00000  -0.03244  -0.00000   0.00000  -0.00000
    2 P1      .S        0.00000  -0.02841  -0.00000  -0.00000  -0.00000
    3 P1      .X       -0.00000  -0.00002   0.00000   0.03150   0.00000
    4 P1      .Y        0.21407  -0.00000  -0.00000  -0.00000   0.03150
    5 P1      .Z        0.00000  -0.00000   0.15541  -0.00000  -0.00000
    6 P1      .S       -0.00000  -0.96733  -0.00000  -0.00000  -0.00000
    7 P1      .X        0.00000   0.00010  -0.00000  -0.07622  -0.00000
    8 P1      .Y       -1.04993   0.00000   0.00000   0.00000  -0.07623
    9 P1      .Z       -0.00000   0.00000  -0.79687   0.00000   0.00000
   10 P1      .S        0.00000   1.63973   0.00000   0.00006   0.00000
   11 P1      .X       -0.00000  -0.00023  -0.00000   0.03514   0.00000
   12 P1      .Y        2.03013  -0.00000   0.00000  -0.00000   0.03518
   13 P1      .Z        0.00000  -0.00000   2.22350  -0.00000  -0.00000
   14 P1      .XX       0.00000  -0.04685   0.00000   0.21270   0.00000
   15 P1      .YY      -0.00000  -0.04690   0.00000  -0.21268  -0.00000
   16 P1      .ZZ      -0.00000  -0.06124  -0.00000  -0.00002  -0.00000
   17 P1      .XY       0.26862  -0.00000  -0.00000   0.00000  -0.24559
   18 P1      .XZ      -0.00000   0.00000   0.00002   0.00000  -0.00000
   19 P1      .YZ       0.00000  -0.00000   0.00000  -0.00000   0.00000
   20 Cl2     .S        0.00000  -0.03002  -0.00000  -0.04226  -0.00000
   21 Cl2     .S       -0.00000   0.05641   0.00000   0.07987   0.00000
   22 Cl2     .X       -0.00000   0.00878   0.00000   0.13453   0.00000
   23 Cl2     .Y        0.08665  -0.00000  -0.00000   0.00000  -0.01477
   24 Cl2     .Z        0.00000  -0.00000   0.07576  -0.00000   0.00000
   25 Cl2     .S        0.00000  -0.54560  -0.00000  -0.79082  -0.00000
   26 Cl2     .X        0.00000  -0.02235  -0.00000  -0.53828  -0.00000
   27 Cl2     .Y       -0.27627   0.00000   0.00000  -0.00000   0.04421
   28 Cl2     .Z       -0.00000   0.00000  -0.26909   0.00000  -0.00000
   29 Cl2     .S        0.00000   0.37155  -0.00000   0.82625   0.00000
   30 Cl2     .X       -0.00000   0.17538   0.00000   0.69178   0.00000
   31 Cl2     .Y       -0.16019  -0.00000  -0.00000   0.00000  -0.00337
   32 Cl2     .Z       -0.00000   0.00000  -0.01331   0.00000   0.00000
   33 Cl2     .XX       0.00000  -0.10311   0.00000   0.01553   0.00000
   34 Cl2     .YY      -0.00000  -0.00511   0.00000  -0.08438  -0.00000
   35 Cl2     .ZZ      -0.00000  -0.01127  -0.00000  -0.04471  -0.00000
   36 Cl2     .XY      -0.10524   0.00000   0.00000  -0.00000   0.06579
   37 Cl2     .XZ      -0.00000   0.00000  -0.04161   0.00000   0.00000
   38 Cl2     .YZ       0.00000  -0.00000   0.00000  -0.00000   0.00000
   39 Cl3     .S       -0.00045  -0.03002  -0.00000   0.02113  -0.03660
   40 Cl3     .S        0.00038   0.05641   0.00000  -0.03993   0.06916
   41 Cl3     .X        0.01750  -0.00440  -0.00000   0.02255  -0.06465
   42 Cl3     .Y        0.05634   0.00761   0.00000  -0.06464   0.09720
   43 Cl3     .Z        0.00000  -0.00000   0.07574  -0.00000   0.00000
   44 Cl3     .S       -0.00086  -0.54555   0.00000   0.39541  -0.68487
   45 Cl3     .X       -0.07597   0.01122   0.00000  -0.10139   0.25222
   46 Cl3     .Y       -0.14467  -0.01936  -0.00000   0.25220  -0.39265
   47 Cl3     .Z       -0.00000   0.00000  -0.26903   0.00000  -0.00000
   48 Cl3     .S       -0.63407   0.37138  -0.00000  -0.41316   0.71556
   49 Cl3     .X       -0.14835  -0.08771  -0.00000   0.17039  -0.30100
   50 Cl3     .Y        0.09674   0.15193   0.00000  -0.30096   0.51798
   51 Cl3     .Z       -0.00000   0.00000  -0.01336  -0.00000   0.00000
   52 Cl3     .XX       0.06127  -0.02961   0.00000  -0.01303  -0.07611
   53 Cl3     .YY      -0.15194  -0.07862   0.00000   0.04747   0.01648
   54 Cl3     .ZZ       0.06044  -0.01126  -0.00000   0.02236  -0.03873
   55 Cl3     .XY       0.10797   0.04903  -0.00000   0.05346  -0.02681
   56 Cl3     .XZ       0.00000  -0.00000   0.02080  -0.00000   0.00000
   57 Cl3     .YZ      -0.00000   0.00000  -0.03603   0.00000   0.00000
   58 Cl4     .S        0.00045  -0.03002  -0.00000   0.02113   0.03660
   59 Cl4     .S       -0.00038   0.05641   0.00000  -0.03993  -0.06916
   60 Cl4     .X       -0.01750  -0.00440  -0.00000   0.02255   0.06465
   61 Cl4     .Y        0.05634  -0.00761  -0.00000   0.06464   0.09720
   62 Cl4     .Z       -0.00000  -0.00000   0.07574  -0.00000   0.00000
   63 Cl4     .S        0.00086  -0.54555   0.00000   0.39541   0.68487
   64 Cl4     .X        0.07597   0.01122   0.00000  -0.10139  -0.25222
   65 Cl4     .Y       -0.14467   0.01936   0.00000  -0.25220  -0.39265
   66 Cl4     .Z        0.00000   0.00000  -0.26903   0.00000  -0.00000
   67 Cl4     .S        0.63407   0.37138  -0.00000  -0.41316  -0.71556
   68 Cl4     .X        0.14835  -0.08771  -0.00000   0.17039   0.30100
   69 Cl4     .Y        0.09674  -0.15193  -0.00000   0.30096   0.51798
   70 Cl4     .Z       -0.00000   0.00000  -0.01336  -0.00000   0.00000
   71 Cl4     .XX      -0.06127  -0.02961   0.00000  -0.01303   0.07611
   72 Cl4     .YY       0.15194  -0.07862   0.00000   0.04747  -0.01648
   73 Cl4     .ZZ      -0.06044  -0.01126  -0.00000   0.02236   0.03873
   74 Cl4     .XY       0.10797  -0.04903   0.00000  -0.05346  -0.02681
   75 Cl4     .XZ       0.00000  -0.00000   0.02080  -0.00000  -0.00000
   76 Cl4     .YZ      -0.00000  -0.00000   0.03603  -0.00000  -0.00000
   77 Cl5     .S       -0.00000  -0.02610  -0.03019   0.00000   0.00000
   78 Cl5     .S        0.00000   0.05924   0.08208  -0.00000  -0.00000
   79 Cl5     .X       -0.00000  -0.00000   0.00001   0.06351   0.00000
   80 Cl5     .Y        0.03810  -0.00000   0.00000  -0.00000   0.06351
   81 Cl5     .Z        0.00000   0.01180   0.07938  -0.00000  -0.00000
   82 Cl5     .S       -0.00000  -0.44722  -0.48813   0.00003   0.00000
   83 Cl5     .X        0.00000   0.00000  -0.00003  -0.23904  -0.00000
   84 Cl5     .Y       -0.11747   0.00000  -0.00000   0.00000  -0.23903
   85 Cl5     .Z       -0.00000  -0.04664  -0.28809   0.00001   0.00000
   86 Cl5     .S        0.00000   0.22462  -0.39155  -0.00003  -0.00000
   87 Cl5     .X        0.00000   0.00003   0.00002   0.25313   0.00000
   88 Cl5     .Y       -0.17735   0.00000  -0.00000  -0.00000   0.25312
   89 Cl5     .Z        0.00000   0.25683   0.77343  -0.00002  -0.00000
   90 Cl5     .XX       0.00000  -0.00806   0.01553   0.01197   0.00000
   91 Cl5     .YY      -0.00000  -0.00807   0.01553  -0.01196  -0.00000
   92 Cl5     .ZZ      -0.00000  -0.06714  -0.09910  -0.00000  -0.00000
   93 Cl5     .XY       0.01711  -0.00000  -0.00000   0.00000  -0.01382
   94 Cl5     .XZ       0.00000   0.00000  -0.00000   0.01498   0.00000
   95 Cl5     .YZ      -0.03838   0.00000  -0.00000  -0.00000   0.01497
   96 Cl6     .S       -0.00000  -0.02610   0.03019   0.00000   0.00000
   97 Cl6     .S        0.00000   0.05924  -0.08208  -0.00000  -0.00000
   98 Cl6     .X       -0.00000  -0.00000  -0.00001   0.06351   0.00000
   99 Cl6     .Y        0.03810  -0.00000  -0.00000  -0.00000   0.06351
  100 Cl6     .Z       -0.00000  -0.01180   0.07938   0.00000   0.00000
  101 Cl6     .S       -0.00000  -0.44722   0.48813   0.00003   0.00000
  102 Cl6     .X        0.00000   0.00000   0.00003  -0.23904  -0.00000
  103 Cl6     .Y       -0.11747   0.00000   0.00000   0.00000  -0.23903
  104 Cl6     .Z        0.00000   0.04664  -0.28809  -0.00001  -0.00000
  105 Cl6     .S        0.00000   0.22462   0.39155  -0.00003  -0.00000
  106 Cl6     .X        0.00000   0.00003  -0.00002   0.25313   0.00000
  107 Cl6     .Y       -0.17735   0.00000   0.00000  -0.00000   0.25312
  108 Cl6     .Z       -0.00000  -0.25683   0.77343   0.00002   0.00000
  109 Cl6     .XX       0.00000  -0.00806  -0.01553   0.01197   0.00000
  110 Cl6     .YY      -0.00000  -0.00807  -0.01553  -0.01196  -0.00000
  111 Cl6     .ZZ      -0.00000  -0.06714   0.09910  -0.00000  -0.00000
  112 Cl6     .XY       0.01711  -0.00000   0.00000   0.00000  -0.01382
  113 Cl6     .XZ      -0.00000  -0.00000  -0.00000  -0.01498  -0.00000
  114 Cl6     .YZ       0.03838  -0.00000  -0.00000   0.00000  -0.01497
                          31        32        33        34        35
                           V         V         V         V         V    
     Eigenvalues --     9.13393   9.87095   9.87109  10.89961  11.35678
    1 P1      .S       -0.01245  -0.00000   0.00000  -0.01737   0.00000
    2 P1      .S       -0.03229  -0.00000   0.00000  -0.04746   0.00000
    3 P1      .X        0.00000   0.00000  -0.00000   0.00001   0.06042
    4 P1      .Y       -0.00000  -0.00000   0.00000   0.00000   0.00000
    5 P1      .Z       -0.00000   0.00000  -0.00000   0.00000   0.00000
    6 P1      .S       -0.47966  -0.00000   0.00000  -0.70880   0.00002
    7 P1      .X       -0.00000  -0.00000   0.00000  -0.00002  -0.29949
    8 P1      .Y        0.00000   0.00000  -0.00000   0.00000  -0.00000
    9 P1      .Z        0.00000  -0.00001   0.00000  -0.00000  -0.00000
   10 P1      .S        2.08381   0.00000  -0.00000   3.28335  -0.00011
   11 P1      .X        0.00003  -0.00000  -0.00000   0.00014   1.73086
   12 P1      .Y        0.00000  -0.00000   0.00000   0.00000   0.00000
   13 P1      .Z        0.00000   0.00004  -0.00000   0.00000   0.00000
   14 P1      .XX       0.20257  -0.00000   0.00000  -0.04453  -0.10712
   15 P1      .YY       0.20259   0.00000   0.00000  -0.04454   0.10712
   16 P1      .ZZ      -0.33389   0.00000  -0.00000   0.28391  -0.00001
   17 P1      .XY       0.00000   0.00000   0.00000  -0.00000   0.00000
   18 P1      .XZ       0.00000  -0.47278  -0.00000   0.00000  -0.00000
   19 P1      .YZ       0.00000   0.00000  -0.47280  -0.00000  -0.00000
   20 Cl2     .S       -0.01114  -0.00000  -0.00000   0.01269   0.00194
   21 Cl2     .S        0.05259   0.00000   0.00000   0.00324   0.01333
   22 Cl2     .X        0.10061   0.00000   0.00000   0.08867   0.06956
   23 Cl2     .Y        0.00000   0.00000   0.00000   0.00000  -0.00000
   24 Cl2     .Z       -0.00000  -0.15035  -0.00000  -0.00000  -0.00000
   25 Cl2     .S       -0.13576  -0.00000  -0.00000   0.30634   0.08169
   26 Cl2     .X       -0.41900  -0.00000  -0.00000  -0.34274  -0.25279
   27 Cl2     .Y       -0.00000  -0.00000  -0.00000  -0.00000   0.00000
   28 Cl2     .Z        0.00000   0.53959   0.00000   0.00000   0.00000
   29 Cl2     .S       -0.37433   0.00000   0.00000  -0.94022  -0.84690
   30 Cl2     .X        0.88365   0.00000  -0.00000   0.75275   0.61203
   31 Cl2     .Y       -0.00000   0.00000   0.00000   0.00000  -0.00000
   32 Cl2     .Z       -0.00000  -0.39523  -0.00000  -0.00000  -0.00000
   33 Cl2     .XX       0.12901  -0.00000   0.00000   0.07646  -0.03585
   34 Cl2     .YY      -0.02907  -0.00000  -0.00000   0.03903   0.06485
   35 Cl2     .ZZ      -0.05760  -0.00000  -0.00000  -0.03411  -0.00536
   36 Cl2     .XY      -0.00000   0.00000   0.00000   0.00000  -0.00000
   37 Cl2     .XZ      -0.00000   0.14843   0.00000  -0.00000  -0.00000
   38 Cl2     .YZ       0.00000   0.00000  -0.04490  -0.00000  -0.00000
   39 Cl3     .S       -0.01115   0.00000  -0.00000   0.01269  -0.00097
   40 Cl3     .S        0.05260  -0.00000   0.00000   0.00323  -0.00667
   41 Cl3     .X       -0.05031   0.00000  -0.00000  -0.04433  -0.12790
   42 Cl3     .Y        0.08714   0.00000   0.00000   0.07678  -0.11401
   43 Cl3     .Z       -0.00000   0.07518  -0.13021  -0.00000  -0.00000
   44 Cl3     .S       -0.13583   0.00000  -0.00000   0.30631  -0.04086
   45 Cl3     .X        0.20951  -0.00000   0.00000   0.17134   0.51900
   46 Cl3     .Y       -0.36289  -0.00000  -0.00000  -0.29676   0.44562
   47 Cl3     .Z        0.00000  -0.26981   0.46729   0.00000   0.00000
   48 Cl3     .S       -0.37424  -0.00000   0.00000  -0.94008   0.42350
   49 Cl3     .X       -0.44184   0.00000   0.00000  -0.37634  -0.71085
   50 Cl3     .Y        0.76529   0.00000   0.00000   0.65178  -0.76381
   51 Cl3     .Z       -0.00000   0.19763  -0.34227  -0.00000  -0.00000
   52 Cl3     .XX       0.01044  -0.00000  -0.00000   0.04839   0.08987
   53 Cl3     .YY       0.08948   0.00000  -0.00000   0.06709  -0.10438
   54 Cl3     .ZZ      -0.05761   0.00000  -0.00000  -0.03411   0.00268
   55 Cl3     .XY      -0.07905  -0.00000   0.00000  -0.01872  -0.09831
   56 Cl3     .XZ       0.00000   0.00343  -0.08372   0.00000   0.00000
   57 Cl3     .YZ      -0.00000  -0.08371   0.10010  -0.00000  -0.00000
   58 Cl4     .S       -0.01115   0.00000  -0.00000   0.01269  -0.00097
   59 Cl4     .S        0.05260   0.00000   0.00000   0.00323  -0.00667
   60 Cl4     .X       -0.05031   0.00000   0.00000  -0.04433  -0.12790
   61 Cl4     .Y       -0.08714  -0.00000   0.00000  -0.07678   0.11401
   62 Cl4     .Z       -0.00000   0.07518   0.13021  -0.00000  -0.00000
   63 Cl4     .S       -0.13583   0.00000  -0.00000   0.30631  -0.04086
   64 Cl4     .X        0.20951  -0.00000  -0.00000   0.17134   0.51900
   65 Cl4     .Y        0.36289   0.00000  -0.00000   0.29676  -0.44562
   66 Cl4     .Z        0.00000  -0.26981  -0.46729   0.00000   0.00000
   67 Cl4     .S       -0.37424  -0.00000   0.00000  -0.94008   0.42350
   68 Cl4     .X       -0.44184   0.00000   0.00000  -0.37634  -0.71085
   69 Cl4     .Y       -0.76529  -0.00000   0.00000  -0.65178   0.76381
   70 Cl4     .Z       -0.00000   0.19763   0.34227  -0.00000  -0.00000
   71 Cl4     .XX       0.01044   0.00000  -0.00000   0.04839   0.08987
   72 Cl4     .YY       0.08948   0.00000   0.00000   0.06709  -0.10438
   73 Cl4     .ZZ      -0.05761  -0.00000   0.00000  -0.03411   0.00268
   74 Cl4     .XY       0.07905   0.00000   0.00000   0.01872   0.09831
   75 Cl4     .XZ       0.00000   0.00343   0.08372   0.00000   0.00000
   76 Cl4     .YZ       0.00000   0.08371   0.10010   0.00000   0.00000
   77 Cl5     .S        0.02621  -0.00000  -0.00000  -0.00606   0.00000
   78 Cl5     .S       -0.05371   0.00000   0.00000   0.03762  -0.00000
   79 Cl5     .X       -0.00000  -0.14473  -0.00000  -0.00001  -0.08371
   80 Cl5     .Y       -0.00000   0.00000  -0.14473  -0.00000  -0.00000
   81 Cl5     .Z       -0.02175   0.00001   0.00000   0.14139  -0.00000
   82 Cl5     .S        0.48474  -0.00004  -0.00000  -0.05539   0.00000
   83 Cl5     .X        0.00002   0.52085   0.00000   0.00003   0.32460
   84 Cl5     .Y        0.00000  -0.00000   0.52084   0.00000   0.00000
   85 Cl5     .Z        0.12964  -0.00004  -0.00000  -0.56895   0.00002
   86 Cl5     .S       -0.68926   0.00002   0.00000  -0.46700   0.00001
   87 Cl5     .X       -0.00002  -0.40047  -0.00000  -0.00004  -0.49138
   88 Cl5     .Y       -0.00000   0.00000  -0.40047  -0.00000  -0.00000
   89 Cl5     .Z       -0.15907   0.00006  -0.00000   1.03954  -0.00003
   90 Cl5     .XX       0.06070  -0.01799  -0.00000  -0.06358   0.00473
   91 Cl5     .YY       0.06071   0.01798   0.00000  -0.06358  -0.00472
   92 Cl5     .ZZ      -0.08005  -0.00000  -0.00000   0.17416  -0.00001
   93 Cl5     .XY       0.00000  -0.00000   0.02077   0.00000  -0.00000
   94 Cl5     .XZ      -0.00000   0.10648   0.00000  -0.00000  -0.03629
   95 Cl5     .YZ      -0.00000  -0.00000   0.10648   0.00000  -0.00000
   96 Cl6     .S        0.02621   0.00000   0.00000  -0.00606   0.00000
   97 Cl6     .S       -0.05371  -0.00000  -0.00000   0.03762  -0.00000
   98 Cl6     .X       -0.00000   0.14473   0.00000  -0.00001  -0.08371
   99 Cl6     .Y       -0.00000  -0.00000   0.14473  -0.00000  -0.00000
  100 Cl6     .Z        0.02175   0.00001   0.00000  -0.14139   0.00000
  101 Cl6     .S        0.48474   0.00004   0.00000  -0.05539   0.00000
  102 Cl6     .X        0.00002  -0.52085  -0.00000   0.00003   0.32460
  103 Cl6     .Y        0.00000   0.00000  -0.52084   0.00000   0.00000
  104 Cl6     .Z       -0.12964  -0.00004  -0.00000   0.56895  -0.00002
  105 Cl6     .S       -0.68926  -0.00002  -0.00000  -0.46700   0.00001
  106 Cl6     .X       -0.00002   0.40047   0.00000  -0.00004  -0.49138
  107 Cl6     .Y       -0.00000  -0.00000   0.40047  -0.00000  -0.00000
  108 Cl6     .Z        0.15907   0.00006   0.00000  -1.03954   0.00003
  109 Cl6     .XX       0.06070   0.01799   0.00000  -0.06358   0.00473
  110 Cl6     .YY       0.06071  -0.01798  -0.00000  -0.06358  -0.00472
  111 Cl6     .ZZ      -0.08005   0.00000   0.00000   0.17416  -0.00001
  112 Cl6     .XY       0.00000   0.00000  -0.02077   0.00000  -0.00000
  113 Cl6     .XZ       0.00000   0.10648   0.00000   0.00000   0.03629
  114 Cl6     .YZ       0.00000  -0.00000   0.10648  -0.00000   0.00000
                          36        37        38        39        40
                           V         V         V         V         V    
     Eigenvalues --    11.35679  11.45723  12.14417  12.51612  12.51623
    1 P1      .S       -0.00000  -0.00000  -0.00000   0.00000  -0.00000
    2 P1      .S       -0.00000  -0.00000  -0.00000   0.00001  -0.00000
    3 P1      .X       -0.00000  -0.00000  -0.00000   0.05658  -0.00000
    4 P1      .Y        0.06042  -0.00000   0.00000   0.00000   0.05658
    5 P1      .Z        0.00000   0.15544  -0.04132  -0.00000  -0.00000
    6 P1      .S       -0.00000  -0.00000  -0.00000   0.00015  -0.00000
    7 P1      .X        0.00000   0.00000   0.00000  -0.17772   0.00000
    8 P1      .Y       -0.29949   0.00000  -0.00000  -0.00000  -0.17773
    9 P1      .Z       -0.00000  -0.89007   0.36752   0.00000   0.00000
   10 P1      .S        0.00000  -0.00000   0.00000  -0.00047   0.00000
   11 P1      .X       -0.00000  -0.00000  -0.00000   1.17231  -0.00000
   12 P1      .Y        1.73082  -0.00000   0.00000   0.00000   1.17236
   13 P1      .Z        0.00000   3.67025   0.13811  -0.00000  -0.00000
   14 P1      .XX       0.00000  -0.00000  -0.00000   0.22294  -0.00000
   15 P1      .YY      -0.00000  -0.00000   0.00000  -0.22291   0.00000
   16 P1      .ZZ       0.00000  -0.00000   0.00000  -0.00003   0.00000
   17 P1      .XY       0.12370  -0.00000  -0.00000  -0.00000  -0.25743
   18 P1      .XZ       0.00000  -0.00001   0.00005   0.00000  -0.00000
   19 P1      .YZ      -0.00000  -0.00000   0.00000   0.00000  -0.00000
   20 Cl2     .S       -0.00000  -0.00000  -0.00000   0.01380  -0.00000
   21 Cl2     .S       -0.00000  -0.00000  -0.00000   0.00805  -0.00000
   22 Cl2     .X       -0.00000  -0.00000  -0.00000   0.10197  -0.00000
   23 Cl2     .Y       -0.19373   0.00000   0.00000   0.00000   0.10110
   24 Cl2     .Z       -0.00000  -0.11411  -0.07257  -0.00000   0.00000
   25 Cl2     .S       -0.00000  -0.00000  -0.00000   0.33995  -0.00000
   26 Cl2     .X        0.00000   0.00000   0.00000  -0.42531   0.00000
   27 Cl2     .Y        0.77629  -0.00000  -0.00000  -0.00000  -0.39448
   28 Cl2     .Z        0.00000   0.46793   0.26080   0.00000  -0.00000
   29 Cl2     .S        0.00000   0.00000   0.00000  -1.02293   0.00000
   30 Cl2     .X       -0.00000  -0.00000  -0.00000   0.87046  -0.00000
   31 Cl2     .Y       -1.15185   0.00000   0.00000   0.00000   0.30272
   32 Cl2     .Z       -0.00000  -0.99019  -0.15463  -0.00000   0.00000
   33 Cl2     .XX       0.00000  -0.00000  -0.00000   0.21010  -0.00000
   34 Cl2     .YY      -0.00000   0.00000   0.00000   0.03736  -0.00000
   35 Cl2     .ZZ       0.00000   0.00000   0.00000  -0.13262   0.00000
   36 Cl2     .XY      -0.16891   0.00000   0.00000   0.00000   0.02141
   37 Cl2     .XZ      -0.00000  -0.17196   0.10114   0.00000  -0.00000
   38 Cl2     .YZ      -0.00000  -0.00000   0.00000  -0.00000  -0.00000
   39 Cl3     .S        0.00168  -0.00000   0.00000  -0.00690   0.01195
   40 Cl3     .S        0.01155   0.00000   0.00000  -0.00403   0.00697
   41 Cl3     .X       -0.11401   0.00000  -0.00000   0.10132  -0.00038
   42 Cl3     .Y        0.00374  -0.00000  -0.00000  -0.00038   0.10175
   43 Cl3     .Z       -0.00000  -0.11411  -0.07256  -0.00000   0.00000
   44 Cl3     .S        0.07074  -0.00000   0.00000  -0.17001   0.29444
   45 Cl3     .X        0.44560  -0.00000   0.00000  -0.40220   0.01337
   46 Cl3     .Y        0.00449   0.00000   0.00000   0.01334  -0.41758
   47 Cl3     .Z        0.00000   0.46792   0.26077  -0.00000  -0.00000
   48 Cl3     .S       -0.73342   0.00000  -0.00000   0.51162  -0.88601
   49 Cl3     .X       -0.76377   0.00000  -0.00000   0.44471  -0.24589
   50 Cl3     .Y        0.17105  -0.00000   0.00000  -0.24589   0.72855
   51 Cl3     .Z       -0.00000  -0.99018  -0.15458   0.00000   0.00000
   52 Cl3     .XX       0.09770  -0.00000   0.00000  -0.05420   0.06174
   53 Cl3     .YY      -0.07260  -0.00000   0.00000  -0.06955   0.15259
   54 Cl3     .ZZ      -0.00464   0.00000  -0.00000   0.06633  -0.11487
   55 Cl3     .XY       0.00138   0.00000   0.00000   0.05245  -0.06944
   56 Cl3     .XZ       0.00000   0.08598  -0.05058  -0.00000  -0.00000
   57 Cl3     .YZ      -0.00000  -0.14892   0.08762   0.00000   0.00000
   58 Cl4     .S       -0.00168  -0.00000  -0.00000  -0.00690  -0.01195
   59 Cl4     .S       -0.01155   0.00000   0.00000  -0.00403  -0.00697
   60 Cl4     .X        0.11401   0.00000  -0.00000   0.10132   0.00038
   61 Cl4     .Y        0.00374   0.00000   0.00000   0.00038   0.10175
   62 Cl4     .Z       -0.00000  -0.11411  -0.07256  -0.00000   0.00000
   63 Cl4     .S       -0.07074  -0.00000  -0.00000  -0.17001  -0.29444
   64 Cl4     .X       -0.44560  -0.00000   0.00000  -0.40220  -0.01337
   65 Cl4     .Y        0.00449  -0.00000  -0.00000  -0.01334  -0.41758
   66 Cl4     .Z        0.00000   0.46792   0.26077   0.00000  -0.00000
   67 Cl4     .S        0.73342   0.00000   0.00000   0.51162   0.88601
   68 Cl4     .X        0.76377   0.00000  -0.00000   0.44471   0.24589
   69 Cl4     .Y        0.17105   0.00000   0.00000   0.24589   0.72855
   70 Cl4     .Z       -0.00000  -0.99018  -0.15458   0.00000   0.00000
   71 Cl4     .XX      -0.09770  -0.00000   0.00000  -0.05420  -0.06174
   72 Cl4     .YY       0.07260  -0.00000  -0.00000  -0.06955  -0.15259
   73 Cl4     .ZZ       0.00464   0.00000  -0.00000   0.06633   0.11487
   74 Cl4     .XY       0.00138  -0.00000  -0.00000  -0.05245  -0.06944
   75 Cl4     .XZ       0.00000   0.08598  -0.05058  -0.00000   0.00000
   76 Cl4     .YZ       0.00000   0.14892  -0.08762  -0.00000   0.00000
   77 Cl5     .S        0.00000   0.01009   0.00004  -0.00000   0.00000
   78 Cl5     .S        0.00000   0.01795   0.01428  -0.00000  -0.00000
   79 Cl5     .X        0.00000  -0.00000   0.00001  -0.14142   0.00000
   80 Cl5     .Y       -0.08370   0.00000  -0.00000  -0.00000  -0.14142
   81 Cl5     .Z        0.00000  -0.00650   0.18389  -0.00000  -0.00000
   82 Cl5     .S        0.00000   0.29049   0.02838  -0.00007   0.00000
   83 Cl5     .X       -0.00000   0.00001  -0.00002   0.54535  -0.00000
   84 Cl5     .Y        0.32458  -0.00000   0.00000   0.00000   0.54536
   85 Cl5     .Z       -0.00000   0.04869  -0.73553   0.00002   0.00000
   86 Cl5     .S       -0.00000  -1.74773  -0.18101   0.00017  -0.00000
   87 Cl5     .X        0.00000  -0.00000   0.00003  -0.65907   0.00000
   88 Cl5     .Y       -0.49136   0.00000  -0.00000  -0.00000  -0.65909
   89 Cl5     .Z        0.00000   0.66960   0.96244  -0.00009   0.00000
   90 Cl5     .XX      -0.00000   0.03819  -0.05795  -0.06100   0.00000
   91 Cl5     .YY       0.00000   0.03820  -0.05794   0.06101  -0.00000
   92 Cl5     .ZZ       0.00000  -0.01250   0.16343  -0.00003   0.00000
   93 Cl5     .XY      -0.00546  -0.00000   0.00000   0.00000   0.07045
   94 Cl5     .XZ       0.00000   0.00000  -0.00001  -0.00680   0.00000
   95 Cl5     .YZ      -0.03630   0.00000   0.00000  -0.00000  -0.00680
   96 Cl6     .S       -0.00000  -0.01009  -0.00004  -0.00000   0.00000
   97 Cl6     .S       -0.00000  -0.01795  -0.01428  -0.00000   0.00000
   98 Cl6     .X        0.00000   0.00000  -0.00001  -0.14142   0.00000
   99 Cl6     .Y       -0.08370   0.00000  -0.00000  -0.00000  -0.14142
  100 Cl6     .Z       -0.00000  -0.00650   0.18389   0.00000   0.00000
  101 Cl6     .S       -0.00000  -0.29049  -0.02838  -0.00007   0.00000
  102 Cl6     .X       -0.00000  -0.00001   0.00002   0.54535  -0.00000
  103 Cl6     .Y        0.32458  -0.00000   0.00000   0.00000   0.54536
  104 Cl6     .Z        0.00000   0.04869  -0.73553  -0.00002  -0.00000
  105 Cl6     .S        0.00000   1.74773   0.18101   0.00017  -0.00000
  106 Cl6     .X        0.00000   0.00000  -0.00003  -0.65907   0.00000
  107 Cl6     .Y       -0.49136   0.00000  -0.00000  -0.00000  -0.65909
  108 Cl6     .Z        0.00000   0.66960   0.96244   0.00009  -0.00000
  109 Cl6     .XX      -0.00000  -0.03819   0.05795  -0.06100   0.00000
  110 Cl6     .YY       0.00000  -0.03820   0.05794   0.06101  -0.00000
  111 Cl6     .ZZ       0.00000   0.01250  -0.16343  -0.00003   0.00000
  112 Cl6     .XY      -0.00546   0.00000   0.00000   0.00000   0.07045
  113 Cl6     .XZ      -0.00000   0.00000  -0.00001   0.00680  -0.00000
  114 Cl6     .YZ       0.03630  -0.00000  -0.00000   0.00000   0.00680
                          41        42        43        44        45
                           V         V         V         V         V    
     Eigenvalues --    13.04136  13.32038  13.37239  13.37246  14.11362
    1 P1      .S       -0.03303  -0.00000  -0.00000   0.00000  -0.02432
    2 P1      .S       -0.13105  -0.00000  -0.00000   0.00000  -0.09409
    3 P1      .X        0.00000  -0.00000   0.00000  -0.00000   0.00000
    4 P1      .Y       -0.00000  -0.00000   0.00000  -0.00000   0.00000
    5 P1      .Z       -0.00000  -0.00000  -0.00000  -0.00000  -0.00000
    6 P1      .S       -1.35894  -0.00000  -0.00000   0.00000  -0.99081
    7 P1      .X       -0.00002   0.00000  -0.00000   0.00000  -0.00000
    8 P1      .Y        0.00000   0.00001  -0.00000   0.00000   0.00000
    9 P1      .Z        0.00000   0.00000   0.00003   0.00000   0.00000
   10 P1      .S        3.45293   0.00000   0.00000  -0.00000   2.61655
   11 P1      .X        0.00011  -0.00000   0.00000  -0.00000  -0.00000
   12 P1      .Y       -0.00000  -0.00001   0.00000  -0.00000   0.00000
   13 P1      .Z       -0.00000   0.00000  -0.00000  -0.00000  -0.00000
   14 P1      .XX      -0.17969  -0.00000  -0.00000   0.00000   0.26599
   15 P1      .YY      -0.17974  -0.00000  -0.00000   0.00000   0.26598
   16 P1      .ZZ       0.27011   0.00000   0.00000  -0.00000  -0.59409
   17 P1      .XY       0.00000  -0.00000  -0.00000   0.00000   0.00000
   18 P1      .XZ       0.00000  -0.00000  -0.49910  -0.00000   0.00000
   19 P1      .YZ      -0.00000  -0.00000   0.00000  -0.49906   0.00000
   20 Cl2     .S       -0.00554  -0.00000   0.00000   0.00000   0.00500
   21 Cl2     .S        0.01087   0.00000   0.00000  -0.00000   0.02040
   22 Cl2     .X       -0.03802  -0.00000   0.00000  -0.00000  -0.09428
   23 Cl2     .Y       -0.00000   0.17164  -0.00000  -0.00000   0.00000
   24 Cl2     .Z        0.00000   0.00000   0.17770   0.00000   0.00000
   25 Cl2     .S       -0.09264  -0.00000   0.00000   0.00000   0.16890
   26 Cl2     .X        0.18293   0.00000  -0.00000   0.00000   0.35118
   27 Cl2     .Y        0.00000  -0.68191   0.00000   0.00000  -0.00000
   28 Cl2     .Z       -0.00000  -0.00000  -0.73021  -0.00000  -0.00000
   29 Cl2     .S       -0.35585  -0.00000  -0.00000   0.00000  -0.73021
   30 Cl2     .X        0.04567   0.00000   0.00000  -0.00000   0.00204
   31 Cl2     .Y       -0.00000   0.80862  -0.00000  -0.00000  -0.00000
   32 Cl2     .Z        0.00000   0.00000   0.97305   0.00000   0.00000
   33 Cl2     .XX      -0.13046  -0.00000   0.00000   0.00000   0.16179
   34 Cl2     .YY       0.16332   0.00000   0.00000  -0.00000   0.04306
   35 Cl2     .ZZ      -0.08427  -0.00000  -0.00000   0.00000  -0.13665
   36 Cl2     .XY      -0.00000   0.07793  -0.00000  -0.00000  -0.00000
   37 Cl2     .XZ       0.00000   0.00000   0.26767   0.00000   0.00000
   38 Cl2     .YZ      -0.00000  -0.00000   0.00000  -0.03711  -0.00000
   39 Cl3     .S       -0.00554   0.00000  -0.00000  -0.00000   0.00500
   40 Cl3     .S        0.01086  -0.00000   0.00000  -0.00000   0.02040
   41 Cl3     .X        0.01902  -0.14865   0.00000   0.00000   0.04714
   42 Cl3     .Y       -0.03293  -0.08583   0.00000   0.00000  -0.08165
   43 Cl3     .Z        0.00000   0.00000  -0.08886   0.15390   0.00000
   44 Cl3     .S       -0.09269   0.00001  -0.00000  -0.00000   0.16892
   45 Cl3     .X       -0.09151   0.59057  -0.00000  -0.00000  -0.17559
   46 Cl3     .Y        0.15846   0.34098  -0.00000  -0.00000   0.30413
   47 Cl3     .Z       -0.00000  -0.00000   0.36513  -0.63242  -0.00000
   48 Cl3     .S       -0.35569  -0.00002  -0.00000   0.00000  -0.73024
   49 Cl3     .X       -0.02276  -0.70031   0.00000   0.00000  -0.00102
   50 Cl3     .Y        0.03946  -0.40433   0.00000  -0.00000   0.00177
   51 Cl3     .Z        0.00000   0.00000  -0.48654   0.84272   0.00000
   52 Cl3     .XX       0.08986   0.05845   0.00000  -0.00000   0.07274
   53 Cl3     .YY      -0.05704  -0.05845  -0.00000   0.00000   0.13211
   54 Cl3     .ZZ      -0.08425   0.00000  -0.00000   0.00000  -0.13665
   55 Cl3     .XY       0.14690  -0.03897   0.00000   0.00000  -0.05936
   56 Cl3     .XZ      -0.00000  -0.00000   0.03908  -0.13196  -0.00000
   57 Cl3     .YZ       0.00000   0.00000  -0.13196   0.19146   0.00000
   58 Cl4     .S       -0.00554  -0.00000  -0.00000   0.00000   0.00500
   59 Cl4     .S        0.01086   0.00000   0.00000   0.00000   0.02040
   60 Cl4     .X        0.01902   0.14865  -0.00000  -0.00000   0.04714
   61 Cl4     .Y        0.03293  -0.08583   0.00000   0.00000   0.08165
   62 Cl4     .Z        0.00000  -0.00000  -0.08886  -0.15390   0.00000
   63 Cl4     .S       -0.09269  -0.00001  -0.00000   0.00000   0.16892
   64 Cl4     .X       -0.09151  -0.59057   0.00000   0.00000  -0.17559
   65 Cl4     .Y       -0.15846   0.34098  -0.00000  -0.00000  -0.30413
   66 Cl4     .Z       -0.00000   0.00000   0.36513   0.63242  -0.00000
   67 Cl4     .S       -0.35569   0.00002   0.00000  -0.00000  -0.73024
   68 Cl4     .X       -0.02276   0.70031  -0.00000  -0.00000  -0.00102
   69 Cl4     .Y       -0.03946  -0.40433   0.00000  -0.00000  -0.00177
   70 Cl4     .Z        0.00000  -0.00000  -0.48654  -0.84272   0.00000
   71 Cl4     .XX       0.08986  -0.05845   0.00000   0.00000   0.07274
   72 Cl4     .YY      -0.05704   0.05845  -0.00000   0.00000   0.13211
   73 Cl4     .ZZ      -0.08425  -0.00000   0.00000  -0.00000  -0.13665
   74 Cl4     .XY      -0.14690  -0.03897  -0.00000   0.00000   0.05936
   75 Cl4     .XZ      -0.00000   0.00000   0.03908   0.13196  -0.00000
   76 Cl4     .YZ      -0.00000   0.00000   0.13196   0.19146  -0.00000
   77 Cl5     .S        0.03220   0.00000   0.00000   0.00000   0.00723
   78 Cl5     .S        0.01098   0.00000  -0.00000  -0.00000  -0.00521
   79 Cl5     .X       -0.00001   0.00000  -0.03295  -0.00000  -0.00000
   80 Cl5     .Y        0.00000   0.00001   0.00000  -0.03295   0.00000
   81 Cl5     .Z       -0.02401  -0.00000   0.00001   0.00000   0.10594
   82 Cl5     .S        0.77523   0.00000   0.00001  -0.00000   0.17113
   83 Cl5     .X        0.00003  -0.00000   0.14351   0.00000   0.00001
   84 Cl5     .Y       -0.00000  -0.00003  -0.00000   0.14353  -0.00000
   85 Cl5     .Z        0.03764  -0.00000  -0.00004  -0.00000  -0.37741
   86 Cl5     .S       -1.74389  -0.00000  -0.00002   0.00000  -0.55310
   87 Cl5     .X       -0.00004   0.00000  -0.28424  -0.00000  -0.00001
   88 Cl5     .Y        0.00000   0.00003   0.00000  -0.28427   0.00000
   89 Cl5     .Z        0.62576   0.00000   0.00005  -0.00000   0.59717
   90 Cl5     .XX      -0.01740  -0.00000   0.07262   0.00000   0.09264
   91 Cl5     .YY      -0.01738  -0.00000  -0.07263  -0.00000   0.09264
   92 Cl5     .ZZ       0.28639   0.00000   0.00001  -0.00000  -0.19172
   93 Cl5     .XY      -0.00000  -0.00000   0.00000  -0.08387   0.00000
   94 Cl5     .XZ      -0.00000   0.00000  -0.00836  -0.00000  -0.00000
   95 Cl5     .YZ       0.00000   0.00000   0.00000  -0.00837   0.00000
   96 Cl6     .S        0.03220   0.00000  -0.00000  -0.00000   0.00723
   97 Cl6     .S        0.01098   0.00000   0.00000   0.00000  -0.00521
   98 Cl6     .X       -0.00001   0.00000   0.03295   0.00000  -0.00000
   99 Cl6     .Y        0.00000   0.00001  -0.00000   0.03295   0.00000
  100 Cl6     .Z        0.02401   0.00000   0.00001   0.00000  -0.10594
  101 Cl6     .S        0.77523   0.00000  -0.00001  -0.00000   0.17113
  102 Cl6     .X        0.00003  -0.00000  -0.14351  -0.00000   0.00001
  103 Cl6     .Y       -0.00000  -0.00003   0.00000  -0.14353  -0.00000
  104 Cl6     .Z       -0.03764   0.00000  -0.00004  -0.00000   0.37741
  105 Cl6     .S       -1.74389  -0.00000   0.00002   0.00000  -0.55310
  106 Cl6     .X       -0.00004   0.00000   0.28424   0.00000  -0.00001
  107 Cl6     .Y        0.00000   0.00003  -0.00000   0.28427   0.00000
  108 Cl6     .Z       -0.62576  -0.00000   0.00005   0.00000  -0.59717
  109 Cl6     .XX      -0.01740  -0.00000  -0.07262  -0.00000   0.09264
  110 Cl6     .YY      -0.01738  -0.00000   0.07263   0.00000   0.09264
  111 Cl6     .ZZ       0.28639   0.00000  -0.00001  -0.00000  -0.19172
  112 Cl6     .XY      -0.00000  -0.00000  -0.00000   0.08387   0.00000
  113 Cl6     .XZ       0.00000  -0.00000  -0.00836  -0.00000   0.00000
  114 Cl6     .YZ      -0.00000  -0.00000   0.00000  -0.00837  -0.00000
                          46        47        48        49        50
                           V         V         V         V         V    
     Eigenvalues --    14.31067  14.31070  14.96113  14.96117  17.30389
    1 P1      .S       -0.00000  -0.00000  -0.00000  -0.00000  -0.00000
    2 P1      .S       -0.00000  -0.00000  -0.00000  -0.00000   0.00000
    3 P1      .X       -0.00000  -0.00000   0.00000  -0.02297   0.11572
    4 P1      .Y        0.00000   0.00000  -0.02297  -0.00000  -0.00000
    5 P1      .Z        0.00000   0.00000   0.00000  -0.00000  -0.00000
    6 P1      .S       -0.00000  -0.00000  -0.00000  -0.00004  -0.00000
    7 P1      .X        0.00000  -0.00000   0.00000  -0.03139  -0.64347
    8 P1      .Y        0.00000  -0.00000  -0.03137  -0.00000   0.00000
    9 P1      .Z        0.00000  -0.00000  -0.00000  -0.00000   0.00000
   10 P1      .S        0.00000   0.00000   0.00000   0.00014   0.00001
   11 P1      .X        0.00000  -0.00000   0.00000  -1.07140   1.86191
   12 P1      .Y        0.00000   0.00000  -1.07147  -0.00000  -0.00000
   13 P1      .Z        0.00004   0.00000  -0.00000  -0.00000  -0.00000
   14 P1      .XX       0.00000   0.00000  -0.00000   0.01728   0.59633
   15 P1      .YY       0.00000   0.00000   0.00000  -0.01729  -0.59633
   16 P1      .ZZ      -0.00000  -0.00000  -0.00000   0.00001   0.00001
   17 P1      .XY      -0.00000  -0.00000  -0.01994  -0.00000   0.00000
   18 P1      .XZ      -0.55093  -0.00000  -0.00000  -0.00000   0.00000
   19 P1      .YZ       0.00000  -0.55095  -0.00000   0.00000   0.00000
   20 Cl2     .S        0.00000  -0.00000   0.00000  -0.03931   0.00172
   21 Cl2     .S        0.00000   0.00000  -0.00000   0.00148   0.04472
   22 Cl2     .X       -0.00000  -0.00000   0.00000  -0.10502  -0.11599
   23 Cl2     .Y       -0.00000   0.00000   0.01373   0.00000   0.00000
   24 Cl2     .Z       -0.05108  -0.00000  -0.00000   0.00000  -0.00000
   25 Cl2     .S        0.00000  -0.00000   0.00000  -0.92611   0.14606
   26 Cl2     .X        0.00000   0.00000  -0.00000   0.45848   0.42935
   27 Cl2     .Y        0.00000   0.00000  -0.07549  -0.00000  -0.00000
   28 Cl2     .Z        0.21344   0.00000   0.00000  -0.00000   0.00000
   29 Cl2     .S       -0.00000   0.00000  -0.00000   1.92796  -1.18096
   30 Cl2     .X        0.00000  -0.00000   0.00000  -1.05869   0.07118
   31 Cl2     .Y       -0.00000  -0.00000   0.30699   0.00000   0.00000
   32 Cl2     .Z       -0.36381  -0.00000  -0.00000   0.00000  -0.00000
   33 Cl2     .XX       0.00000  -0.00000   0.00000  -0.24506   0.30978
   34 Cl2     .YY      -0.00000   0.00000  -0.00000   0.06258  -0.12519
   35 Cl2     .ZZ      -0.00000  -0.00000   0.00000  -0.06777  -0.07391
   36 Cl2     .XY      -0.00000  -0.00000   0.19774   0.00000  -0.00000
   37 Cl2     .XZ       0.04623   0.00000  -0.00000  -0.00000   0.00000
   38 Cl2     .YZ      -0.00000   0.04679   0.00000  -0.00000   0.00000
   39 Cl3     .S        0.00000   0.00000  -0.03404   0.01966  -0.00086
   40 Cl3     .S        0.00000   0.00000   0.00128  -0.00074  -0.02236
   41 Cl3     .X       -0.00000  -0.00000   0.05141  -0.01596  -0.06923
   42 Cl3     .Y       -0.00000   0.00000  -0.07533   0.05142   0.02700
   43 Cl3     .Z        0.02554  -0.04423  -0.00000   0.00000  -0.00000
   44 Cl3     .S        0.00000   0.00000  -0.80205   0.46308  -0.07302
   45 Cl3     .X        0.00000   0.00000  -0.23120   0.05803   0.27282
   46 Cl3     .Y        0.00000  -0.00000   0.32500  -0.23122  -0.09039
   47 Cl3     .Z       -0.10672   0.18481   0.00000  -0.00000   0.00000
   48 Cl3     .S       -0.00000  -0.00000   1.66974  -0.96406   0.59046
   49 Cl3     .X       -0.00000  -0.00000   0.59136  -0.03448  -0.37244
   50 Cl3     .Y        0.00000   0.00000  -0.71732   0.59138  -0.25610
   51 Cl3     .Z        0.18191  -0.31502  -0.00000   0.00000  -0.00000
   52 Cl3     .XX       0.00000   0.00000  -0.08657  -0.12127   0.00227
   53 Cl3     .YY       0.00000   0.00000  -0.07148   0.21252  -0.09457
   54 Cl3     .ZZ      -0.00000   0.00000  -0.05870   0.03389   0.03696
   55 Cl3     .XY      -0.00000  -0.00000   0.18265   0.00871   0.11270
   56 Cl3     .XZ       0.04665   0.00024   0.00000   0.00000   0.00000
   57 Cl3     .YZ       0.00025   0.04638  -0.00000  -0.00000  -0.00000
   58 Cl4     .S       -0.00000  -0.00000   0.03404   0.01966  -0.00086
   59 Cl4     .S        0.00000  -0.00000  -0.00128  -0.00074  -0.02236
   60 Cl4     .X        0.00000   0.00000  -0.05141  -0.01596  -0.06923
   61 Cl4     .Y        0.00000   0.00000  -0.07533  -0.05142  -0.02700
   62 Cl4     .Z        0.02554   0.04423   0.00000   0.00000  -0.00000
   63 Cl4     .S       -0.00000  -0.00000   0.80205   0.46308  -0.07302
   64 Cl4     .X       -0.00000  -0.00000   0.23120   0.05803   0.27282
   65 Cl4     .Y       -0.00000  -0.00000   0.32500   0.23122   0.09039
   66 Cl4     .Z       -0.10672  -0.18481  -0.00000  -0.00000   0.00000
   67 Cl4     .S        0.00000   0.00000  -1.66974  -0.96406   0.59046
   68 Cl4     .X        0.00000   0.00000  -0.59136  -0.03448  -0.37244
   69 Cl4     .Y        0.00000   0.00000  -0.71732  -0.59138   0.25610
   70 Cl4     .Z        0.18191   0.31502   0.00000   0.00000  -0.00000
   71 Cl4     .XX       0.00000  -0.00000   0.08657  -0.12127   0.00227
   72 Cl4     .YY       0.00000  -0.00000   0.07148   0.21252  -0.09457
   73 Cl4     .ZZ      -0.00000  -0.00000   0.05870   0.03389   0.03696
   74 Cl4     .XY      -0.00000  -0.00000   0.18265  -0.00871  -0.11270
   75 Cl4     .XZ       0.04665  -0.00024  -0.00000   0.00000  -0.00000
   76 Cl4     .YZ      -0.00025   0.04638  -0.00000   0.00000   0.00000
   77 Cl5     .S        0.00000  -0.00000   0.00000   0.00000  -0.00000
   78 Cl5     .S        0.00000   0.00000  -0.00000   0.00000   0.00000
   79 Cl5     .X        0.15026   0.00000   0.00000  -0.10194   0.04001
   80 Cl5     .Y       -0.00000   0.15026  -0.10194  -0.00000  -0.00000
   81 Cl5     .Z        0.00000   0.00000   0.00000  -0.00000  -0.00000
   82 Cl5     .S        0.00002  -0.00000   0.00000   0.00000  -0.00001
   83 Cl5     .X       -0.61627  -0.00000  -0.00000   0.42602  -0.14526
   84 Cl5     .Y        0.00000  -0.61627   0.42601   0.00000   0.00000
   85 Cl5     .Z       -0.00001  -0.00000  -0.00000   0.00001   0.00000
   86 Cl5     .S       -0.00004  -0.00000  -0.00000  -0.00002   0.00001
   87 Cl5     .X        0.81749   0.00000   0.00000  -0.54815  -0.05630
   88 Cl5     .Y       -0.00000   0.81748  -0.54814  -0.00000   0.00000
   89 Cl5     .Z        0.00002   0.00000   0.00000   0.00000  -0.00000
   90 Cl5     .XX      -0.03322  -0.00000  -0.00000   0.10174  -0.01190
   91 Cl5     .YY       0.03322   0.00000   0.00000  -0.10174   0.01190
   92 Cl5     .ZZ       0.00001  -0.00000  -0.00000   0.00001   0.00000
   93 Cl5     .XY      -0.00000   0.03835  -0.11748  -0.00000  -0.00000
   94 Cl5     .XZ       0.22396   0.00000   0.00000  -0.16405  -0.19712
   95 Cl5     .YZ      -0.00000   0.22396  -0.16404  -0.00000   0.00000
   96 Cl6     .S       -0.00000   0.00000   0.00000   0.00000  -0.00000
   97 Cl6     .S       -0.00000  -0.00000  -0.00000   0.00000   0.00000
   98 Cl6     .X       -0.15026  -0.00000   0.00000  -0.10194   0.04001
   99 Cl6     .Y        0.00000  -0.15026  -0.10194  -0.00000  -0.00000
  100 Cl6     .Z        0.00000  -0.00000  -0.00000   0.00000   0.00000
  101 Cl6     .S       -0.00002   0.00000   0.00000   0.00000  -0.00001
  102 Cl6     .X        0.61627   0.00000  -0.00000   0.42602  -0.14526
  103 Cl6     .Y       -0.00000   0.61627   0.42601   0.00000   0.00000
  104 Cl6     .Z       -0.00001   0.00000   0.00000  -0.00001  -0.00000
  105 Cl6     .S        0.00004  -0.00000  -0.00000  -0.00002   0.00001
  106 Cl6     .X       -0.81749  -0.00000   0.00000  -0.54815  -0.05630
  107 Cl6     .Y        0.00000  -0.81748  -0.54814  -0.00000   0.00000
  108 Cl6     .Z        0.00002  -0.00000  -0.00000  -0.00000   0.00000
  109 Cl6     .XX       0.03322   0.00000  -0.00000   0.10174  -0.01190
  110 Cl6     .YY      -0.03322  -0.00000   0.00000  -0.10174   0.01190
  111 Cl6     .ZZ      -0.00001   0.00000  -0.00000   0.00001   0.00000
  112 Cl6     .XY       0.00000  -0.03835  -0.11748  -0.00000  -0.00000
  113 Cl6     .XZ       0.22396   0.00000  -0.00000   0.16405   0.19712
  114 Cl6     .YZ      -0.00000   0.22396   0.16404   0.00000  -0.00000
                          51        52
                           V         V    
     Eigenvalues --    17.30394  19.27919
    1 P1      .S        0.00000  -0.00000
    2 P1      .S        0.00000  -0.00000
    3 P1      .X        0.00000   0.00000
    4 P1      .Y        0.11572  -0.00000
    5 P1      .Z        0.00000   0.10431
    6 P1      .S        0.00000  -0.00000
    7 P1      .X       -0.00000  -0.00000
    8 P1      .Y       -0.64347   0.00000
    9 P1      .Z       -0.00000  -0.53685
   10 P1      .S       -0.00000   0.00000
   11 P1      .X        0.00000   0.00000
   12 P1      .Y        1.86186  -0.00000
   13 P1      .Z        0.00000   3.47081
   14 P1      .XX       0.00000   0.00000
   15 P1      .YY      -0.00000  -0.00000
   16 P1      .ZZ      -0.00000   0.00000
   17 P1      .XY      -0.68858   0.00000
   18 P1      .XZ       0.00000   0.00001
   19 P1      .YZ       0.00000   0.00000
   20 Cl2     .S        0.00000   0.00000
   21 Cl2     .S        0.00000   0.00000
   22 Cl2     .X       -0.00000  -0.00000
   23 Cl2     .Y       -0.05365   0.00000
   24 Cl2     .Z        0.00000   0.07487
   25 Cl2     .S        0.00000   0.00000
   26 Cl2     .X        0.00000  -0.00000
   27 Cl2     .Y        0.22065  -0.00000
   28 Cl2     .Z       -0.00000  -0.31653
   29 Cl2     .S       -0.00000  -0.00000
   30 Cl2     .X        0.00000   0.00000
   31 Cl2     .Y       -0.52031   0.00000
   32 Cl2     .Z        0.00000   0.15418
   33 Cl2     .XX       0.00000   0.00000
   34 Cl2     .YY      -0.00000  -0.00000
   35 Cl2     .ZZ      -0.00000   0.00000
   36 Cl2     .XY       0.00916   0.00000
   37 Cl2     .XZ       0.00000  -0.00890
   38 Cl2     .YZ      -0.00000  -0.00000
   39 Cl3     .S        0.00149   0.00000
   40 Cl3     .S        0.03873   0.00000
   41 Cl3     .X        0.02700  -0.00000
   42 Cl3     .Y       -0.10041   0.00000
   43 Cl3     .Z        0.00000   0.07487
   44 Cl3     .S        0.12646   0.00000
   45 Cl3     .X       -0.09039   0.00000
   46 Cl3     .Y        0.37719  -0.00000
   47 Cl3     .Z       -0.00000  -0.31653
   48 Cl3     .S       -1.02267  -0.00000
   49 Cl3     .X       -0.25609  -0.00000
   50 Cl3     .Y       -0.07672   0.00000
   51 Cl3     .Z        0.00000   0.15418
   52 Cl3     .XX      -0.01768  -0.00000
   53 Cl3     .YY       0.17753   0.00000
   54 Cl3     .ZZ      -0.06401   0.00000
   55 Cl3     .XY      -0.18604  -0.00000
   56 Cl3     .XZ      -0.00000   0.00445
   57 Cl3     .YZ       0.00000  -0.00772
   58 Cl4     .S       -0.00149   0.00000
   59 Cl4     .S       -0.03873   0.00000
   60 Cl4     .X       -0.02700  -0.00000
   61 Cl4     .Y       -0.10041  -0.00000
   62 Cl4     .Z        0.00000   0.07487
   63 Cl4     .S       -0.12646   0.00000
   64 Cl4     .X        0.09039   0.00000
   65 Cl4     .Y        0.37719   0.00000
   66 Cl4     .Z       -0.00000  -0.31653
   67 Cl4     .S        1.02267  -0.00000
   68 Cl4     .X        0.25609  -0.00000
   69 Cl4     .Y       -0.07672  -0.00000
   70 Cl4     .Z       -0.00000   0.15418
   71 Cl4     .XX       0.01768  -0.00000
   72 Cl4     .YY      -0.17753   0.00000
   73 Cl4     .ZZ       0.06401   0.00000
   74 Cl4     .XY      -0.18604   0.00000
   75 Cl4     .XZ       0.00000   0.00445
   76 Cl4     .YZ       0.00000   0.00772
   77 Cl5     .S        0.00000   0.03922
   78 Cl5     .S       -0.00000   0.03410
   79 Cl5     .X        0.00000  -0.00000
   80 Cl5     .Y        0.04001  -0.00000
   81 Cl5     .Z        0.00000   0.02682
   82 Cl5     .S        0.00000   1.03254
   83 Cl5     .X       -0.00000   0.00001
   84 Cl5     .Y       -0.14526   0.00000
   85 Cl5     .Z       -0.00000  -0.15328
   86 Cl5     .S       -0.00000  -3.02726
   87 Cl5     .X       -0.00000  -0.00001
   88 Cl5     .Y       -0.05630   0.00000
   89 Cl5     .Z        0.00000   1.28683
   90 Cl5     .XX      -0.00000  -0.07325
   91 Cl5     .YY       0.00000  -0.07324
   92 Cl5     .ZZ       0.00000   0.42001
   93 Cl5     .XY       0.01373   0.00000
   94 Cl5     .XZ      -0.00000  -0.00001
   95 Cl5     .YZ      -0.19712   0.00000
   96 Cl6     .S       -0.00000  -0.03922
   97 Cl6     .S       -0.00000  -0.03410
   98 Cl6     .X        0.00000   0.00000
   99 Cl6     .Y        0.04001  -0.00000
  100 Cl6     .Z       -0.00000   0.02682
  101 Cl6     .S       -0.00000  -1.03254
  102 Cl6     .X       -0.00000  -0.00001
  103 Cl6     .Y       -0.14526   0.00000
  104 Cl6     .Z        0.00000  -0.15328
  105 Cl6     .S        0.00000   3.02726
  106 Cl6     .X       -0.00000   0.00001
  107 Cl6     .Y       -0.05630  -0.00000
  108 Cl6     .Z        0.00000   1.28683
  109 Cl6     .XX      -0.00000   0.07325
  110 Cl6     .YY       0.00000   0.07324
  111 Cl6     .ZZ      -0.00000  -0.42001
  112 Cl6     .XY       0.01373  -0.00000
  113 Cl6     .XZ       0.00000  -0.00001
  114 Cl6     .YZ       0.19712   0.00000
