 Entering Gaussian System

 Standard orientation:



 -------------------------------------------------------
     1   7    0     0.000000     0.000000     1.118353
     2   6    0     0.000000     1.120226     0.329679
     3   6    0     0.000000    -1.120226     0.329679
     4   6    0     0.000000     0.710949    -0.979191
     5   6    0     0.000000    -0.710949    -0.979191
     6   1    0     0.000000     0.000000     2.125150
     7   1    0     0.000000     2.108650     0.764533
     8   1    0     0.000000    -2.108650     0.764533
     9   1    0     0.000000     1.358901    -1.844271
    10   1    0     0.000000    -1.358901    -1.844271
 -------------------------------------------------------

 AO basis set (Overlap normalization):
 Atom  N1     Shell     1 S    6
   4.1735114600e+03   1.8347721600e-03
   6.2745791100e+02   1.3994627000e-02
   1.4290209300e+02   6.8586551810e-02
   4.0234329300e+01   2.3224087300e-01
   1.2820212900e+01   4.6906994810e-01
   4.3904370100e+00   3.6045519910e-01
 Atom  N1     Shell     2 SP   3
   1.1626361860e+01  -1.1496118170e-01   6.7579743880e-02
   2.7162798070e+00  -1.6911747860e-01   3.2390729590e-01
   7.7221839660e-01   1.1458519470e+00   7.4089513980e-01
 Atom  N1     Shell     3 SP   1
   2.1203149750e-01   1.0000000000e+00   1.0000000000e+00
 Atom  N1     Shell     4 D    1
   8.0000000000e-01   1.0000000000e+00
 Atom  C2     Shell     5 S    6
   3.0475248800e+03   1.8347371320e-03
   4.5736951800e+02   1.4037322810e-02
   1.0394868500e+02   6.8842622260e-02
   2.9210155300e+01   2.3218444320e-01
   9.2866629600e+00   4.6794134840e-01
   3.1639269600e+00   3.6231198530e-01
 Atom  C2     Shell     6 SP   3
   7.8682723500e+00  -1.1933241980e-01   6.8999066590e-02
   1.8812885400e+00  -1.6085415170e-01   3.1642396100e-01
   5.4424925800e-01   1.1434564380e+00   7.4430829090e-01
 Atom  C2     Shell     7 SP   1
   1.6871447820e-01   1.0000000000e+00   1.0000000000e+00
 Atom  C2     Shell     8 D    1
   8.0000000000e-01   1.0000000000e+00
 Atom  C3     Shell     9 S    6
   3.0475248800e+03   1.8347371320e-03
   4.5736951800e+02   1.4037322810e-02
   1.0394868500e+02   6.8842622260e-02
   2.9210155300e+01   2.3218444320e-01
   9.2866629600e+00   4.6794134840e-01
   3.1639269600e+00   3.6231198530e-01
 Atom  C3     Shell    10 SP   3
   7.8682723500e+00  -1.1933241980e-01   6.8999066590e-02
   1.8812885400e+00  -1.6085415170e-01   3.1642396100e-01
   5.4424925800e-01   1.1434564380e+00   7.4430829090e-01
 Atom  C3     Shell    11 SP   1
   1.6871447820e-01   1.0000000000e+00   1.0000000000e+00
 Atom  C3     Shell    12 D    1
   8.0000000000e-01   1.0000000000e+00
 Atom  C4     Shell    13 S    6
   3.0475248800e+03   1.8347371320e-03
   4.5736951800e+02   1.4037322810e-02
   1.0394868500e+02   6.8842622260e-02
   2.9210155300e+01   2.3218444320e-01
   9.2866629600e+00   4.6794134840e-01
   3.1639269600e+00   3.6231198530e-01
 Atom  C4     Shell    14 SP   3
   7.8682723500e+00  -1.1933241980e-01   6.8999066590e-02
   1.8812885400e+00  -1.6085415170e-01   3.1642396100e-01
   5.4424925800e-01   1.1434564380e+00   7.4430829090e-01
 Atom  C4     Shell    15 SP   1
   1.6871447820e-01   1.0000000000e+00   1.0000000000e+00
 Atom  C4     Shell    16 D    1
   8.0000000000e-01   1.0000000000e+00
 Atom  C5     Shell    17 S    6
   3.0475248800e+03   1.8347371320e-03
   4.5736951800e+02   1.4037322810e-02
   1.0394868500e+02   6.8842622260e-02
   2.9210155300e+01   2.3218444320e-01
   9.2866629600e+00   4.6794134840e-01
   3.1639269600e+00   3.6231198530e-01
 Atom  C5     Shell    18 SP   3
   7.8682723500e+00  -1.1933241980e-01   6.8999066590e-02
   1.8812885400e+00  -1.6085415170e-01   3.1642396100e-01
   5.4424925800e-01   1.1434564380e+00   7.4430829090e-01
 Atom  C5     Shell    19 SP   1
   1.6871447820e-01   1.0000000000e+00   1.0000000000e+00
 Atom  C5     Shell    20 D    1
   8.0000000000e-01   1.0000000000e+00
 Atom  H6     Shell    21 S    3
   1.8731136960e+01   3.3494604340e-02
   2.8253943650e+00   2.3472695350e-01
   6.4012169230e-01   8.1375732610e-01
 Atom  H6     Shell    22 S    1
   1.6127775880e-01   1.0000000000e+00
 Atom  H7     Shell    23 S    3
   1.8731136960e+01   3.3494604340e-02
   2.8253943650e+00   2.3472695350e-01
   6.4012169230e-01   8.1375732610e-01
 Atom  H7     Shell    24 S    1
   1.6127775880e-01   1.0000000000e+00
 Atom  H8     Shell    25 S    3
   1.8731136960e+01   3.3494604340e-02
   2.8253943650e+00   2.3472695350e-01
   6.4012169230e-01   8.1375732610e-01
 Atom  H8     Shell    26 S    1
   1.6127775880e-01   1.0000000000e+00
 Atom  H9     Shell    27 S    3
   1.8731136960e+01   3.3494604340e-02
   2.8253943650e+00   2.3472695350e-01
   6.4012169230e-01   8.1375732610e-01
 Atom  H9     Shell    28 S    1
   1.6127775880e-01   1.0000000000e+00
 Atom  H10    Shell    29 S    3
   1.8731136960e+01   3.3494604340e-02
   2.8253943650e+00   2.3472695350e-01
   6.4012169230e-01   8.1375732610e-01
 Atom  H10    Shell    30 S    1
   1.6127775880e-01   1.0000000000e+00

 Molecular Orbital Coefficients:
                           1         2         3         4         5
                           O         O         O         O         O    
     Eigenvalues --  -388.53997-275.83519-275.83519-274.59794-274.59794
    1 N1      .S        1.00945   0.00412   0.00412  -0.00078  -0.00078
    2 N1      .S       -0.01331  -0.01185  -0.01185   0.00252   0.00252
    3 N1      .X        0.00000   0.00000  -0.00000   0.00000   0.00000
    4 N1      .Y        0.00000  -0.01842   0.01842  -0.00000   0.00000
    5 N1      .Z        0.00069   0.01204   0.01204  -0.00201  -0.00201
    6 N1      .S       -0.04851  -0.01203  -0.01203   0.00137   0.00137
    7 N1      .X       -0.00000   0.00000  -0.00000   0.00000  -0.00000
    8 N1      .Y       -0.00000  -0.00748   0.00748   0.00036  -0.00036
    9 N1      .Z        0.00154   0.00927   0.00927   0.00062   0.00062
   10 N1      .XX      -0.00605   0.00108   0.00108   0.00037   0.00037
   11 N1      .YY      -0.00796  -0.00120  -0.00120   0.00038   0.00038
   12 N1      .ZZ      -0.00956  -0.00048  -0.00048  -0.00070  -0.00070
   13 N1      .XY      -0.00000   0.00000  -0.00000  -0.00000   0.00000
   14 N1      .XZ      -0.00000   0.00000   0.00000  -0.00000   0.00000
   15 N1      .YZ      -0.00000   0.00151  -0.00151  -0.00056   0.00056
   16 C2      .S        0.00293   1.00906  -0.00088  -0.00085   0.00451
   17 C2      .S       -0.00966   0.00260   0.00162   0.00178  -0.01483
   18 C2      .X       -0.00000   0.00000  -0.00000   0.00000   0.00000
   19 C2      .Y        0.01295  -0.00035  -0.00154  -0.00078   0.00638
   20 C2      .Z       -0.00952   0.00303   0.00045  -0.00029   0.02209
   21 C2      .S        0.00182  -0.04259   0.00981   0.00417  -0.00037
   22 C2      .X       -0.00000   0.00000  -0.00000   0.00000   0.00000
   23 C2      .Y       -0.00186  -0.00610  -0.00626  -0.00091  -0.00170
   24 C2      .Z       -0.00148   0.00133  -0.00356  -0.00176   0.00248
   25 C2      .XX       0.00090  -0.00707  -0.00012   0.00005   0.00070
   26 C2      .YY      -0.00097  -0.00967  -0.00069  -0.00028   0.00057
   27 C2      .ZZ       0.00011  -0.00897   0.00046  -0.00008  -0.00156
   28 C2      .XY      -0.00000   0.00000   0.00000  -0.00000  -0.00000
   29 C2      .XZ       0.00000  -0.00000   0.00000  -0.00000   0.00000
   30 C2      .YZ       0.00169  -0.00069  -0.00017  -0.00074  -0.00120
   31 C3      .S        0.00293  -0.00088   1.00906   0.00451  -0.00085
   32 C3      .S       -0.00966   0.00162   0.00260  -0.01483   0.00178
   33 C3      .X        0.00000  -0.00000   0.00000   0.00000  -0.00000
   34 C3      .Y       -0.01295   0.00154   0.00035  -0.00638   0.00078
   35 C3      .Z       -0.00952   0.00045   0.00303   0.02209  -0.00029
   36 C3      .S        0.00182   0.00981  -0.04259  -0.00037   0.00417
   37 C3      .X       -0.00000  -0.00000   0.00000   0.00000   0.00000
   38 C3      .Y        0.00186   0.00626   0.00610   0.00170   0.00091
   39 C3      .Z       -0.00148  -0.00356   0.00133   0.00248  -0.00176
   40 C3      .XX       0.00090  -0.00012  -0.00707   0.00070   0.00005
   41 C3      .YY      -0.00097  -0.00069  -0.00967   0.00057  -0.00028
   42 C3      .ZZ       0.00011   0.00046  -0.00897  -0.00156  -0.00008
   43 C3      .XY       0.00000  -0.00000  -0.00000   0.00000  -0.00000
   44 C3      .XZ      -0.00000  -0.00000   0.00000  -0.00000   0.00000
   45 C3      .YZ      -0.00169   0.00017   0.00069   0.00120   0.00074
   46 C4      .S       -0.00061   0.00457  -0.00052   0.00404   1.00959
   47 C4      .S        0.00143  -0.01443   0.00163  -0.01295   0.00226
   48 C4      .X        0.00000  -0.00000  -0.00000   0.00000  -0.00000
   49 C4      .Y       -0.00061  -0.00727  -0.00048   0.02141   0.00060
   50 C4      .Z        0.00052  -0.02151   0.00026   0.00070  -0.00118
   51 C4      .S        0.00064  -0.00344  -0.00296  -0.00258  -0.05392
   52 C4      .X        0.00000  -0.00000  -0.00000  -0.00000  -0.00000
   53 C4      .Y        0.00043  -0.00096  -0.00025   0.00243   0.00089
   54 C4      .Z       -0.00052  -0.00253  -0.00390  -0.00013   0.00000
   55 C4      .XX       0.00004   0.00079   0.00016   0.00074  -0.00705
   56 C4      .YY       0.00018   0.00061  -0.00037  -0.00209  -0.00917
   57 C4      .ZZ      -0.00060  -0.00152  -0.00001   0.00064  -0.00959
   58 C4      .XY      -0.00000   0.00000   0.00000  -0.00000   0.00000
   59 C4      .XZ       0.00000   0.00000  -0.00000   0.00000  -0.00000
   60 C4      .YZ       0.00021  -0.00081   0.00053   0.00021   0.00090
   61 C5      .S       -0.00061  -0.00052   0.00457   1.00959   0.00404
   62 C5      .S        0.00143   0.00163  -0.01443   0.00226  -0.01295
   63 C5      .X        0.00000   0.00000  -0.00000   0.00000  -0.00000
   64 C5      .Y        0.00061   0.00048   0.00727  -0.00060  -0.02141
   65 C5      .Z        0.00052   0.00026  -0.02151  -0.00118   0.00070
   66 C5      .S        0.00064  -0.00296  -0.00344  -0.05392  -0.00258
   67 C5      .X       -0.00000   0.00000  -0.00000   0.00000  -0.00000
   68 C5      .Y       -0.00043   0.00025   0.00096  -0.00089  -0.00243
   69 C5      .Z       -0.00052  -0.00390  -0.00253   0.00000  -0.00013
   70 C5      .XX       0.00004   0.00016   0.00079  -0.00705   0.00074
   71 C5      .YY       0.00018  -0.00037   0.00061  -0.00917  -0.00209
   72 C5      .ZZ      -0.00060  -0.00001  -0.00152  -0.00959   0.00064
   73 C5      .XY       0.00000   0.00000  -0.00000   0.00000  -0.00000
   74 C5      .XZ       0.00000  -0.00000   0.00000   0.00000  -0.00000
   75 C5      .YZ      -0.00021  -0.00053   0.00081  -0.00090  -0.00021
   76 H6      .S       -0.01429   0.00207   0.00207  -0.00177  -0.00177
   77 H6      .S       -0.00159   0.00066   0.00066  -0.00283  -0.00283
   78 H7      .S        0.00129  -0.01766  -0.00080  -0.00107   0.00233
   79 H7      .S        0.00317  -0.00331   0.00029  -0.00184   0.00427
   80 H8      .S        0.00129  -0.00080  -0.01766   0.00233  -0.00107
   81 H8      .S        0.00317   0.00029  -0.00331   0.00427  -0.00184
   82 H9      .S       -0.00074   0.00220  -0.00099   0.00195  -0.01808
   83 H9      .S       -0.00163   0.00420  -0.00278   0.00317  -0.00490
   84 H10     .S       -0.00074  -0.00099   0.00220  -0.01808   0.00195
   85 H10     .S       -0.00163  -0.00278   0.00420  -0.00490   0.00317
                           6         7         8         9        10
                           O         O         O         O         O    
     Eigenvalues --   -23.50046 -23.50046 -20.53864 -20.66161 -20.66161
    1 N1      .S       -0.05637  -0.05637  -0.05245  -0.00923  -0.00923
    2 N1      .S        0.26260   0.26260   0.22476   0.02780   0.02780
    3 N1      .X       -0.00000  -0.00000   0.00000   0.00000   0.00000
    4 N1      .Y       -0.35075   0.35075  -0.00000  -0.02798   0.02798
    5 N1      .Z       -0.18410  -0.18410   0.42616  -0.01640  -0.01640
    6 N1      .S        0.27851   0.27851   0.25368  -0.01198  -0.01198
    7 N1      .X       -0.00000  -0.00000  -0.00000   0.00000   0.00000
    8 N1      .Y       -0.17690   0.17690   0.00000  -0.02986   0.02986
    9 N1      .Z       -0.08547  -0.08547   0.18589   0.02555   0.02555
   10 N1      .XX      -0.01164  -0.01164  -0.01241   0.00411   0.00411
   11 N1      .YY       0.00152   0.00152  -0.01153   0.00440   0.00440
   12 N1      .ZZ      -0.00224  -0.00224   0.02405  -0.01038  -0.01038
   13 N1      .XY      -0.00000   0.00000  -0.00000  -0.00000   0.00000
   14 N1      .XZ       0.00000  -0.00000   0.00000   0.00000   0.00000
   15 N1      .YZ       0.00916  -0.00916   0.00000  -0.01008   0.01008
   16 C2      .S        0.01134  -0.03169   0.01197  -0.00923   0.05225
   17 C2      .S       -0.03262   0.20057  -0.03934   0.01751  -0.25917
   18 C2      .X        0.00000  -0.00000  -0.00000   0.00000  -0.00000
   19 C2      .Y        0.02690  -0.25430   0.04744  -0.02483   0.06726
   20 C2      .Z       -0.02759   0.22031  -0.03267  -0.00800   0.35358
   21 C2      .S       -0.00522   0.02874  -0.06458   0.12156  -0.19534
   22 C2      .X       -0.00000   0.00000   0.00000   0.00000  -0.00000
   23 C2      .Y        0.00327  -0.00349   0.02718  -0.05931  -0.01489
   24 C2      .Z       -0.03013   0.06350  -0.01282  -0.03304   0.10809
   25 C2      .XX      -0.00025  -0.01574   0.00313  -0.00027   0.01194
   26 C2      .YY       0.01465   0.00996  -0.00998  -0.00118   0.01316
   27 C2      .ZZ      -0.00711  -0.00340   0.01133  -0.00026  -0.00536
   28 C2      .XY       0.00000   0.00000  -0.00000   0.00000  -0.00000
   29 C2      .XZ      -0.00000   0.00000   0.00000  -0.00000   0.00000
   30 C2      .YZ       0.00050  -0.02406  -0.00374  -0.00066  -0.01244
   31 C3      .S       -0.03169   0.01134   0.01197   0.05225  -0.00923
   32 C3      .S        0.20057  -0.03262  -0.03934  -0.25917   0.01751
   33 C3      .X        0.00000  -0.00000   0.00000   0.00000  -0.00000
   34 C3      .Y        0.25430  -0.02690  -0.04744  -0.06726   0.02483
   35 C3      .Z        0.22031  -0.02759  -0.03267   0.35358  -0.00800
   36 C3      .S        0.02874  -0.00522  -0.06458  -0.19534   0.12156
   37 C3      .X       -0.00000   0.00000   0.00000   0.00000  -0.00000
   38 C3      .Y        0.00349  -0.00327  -0.02718   0.01489   0.05931
   39 C3      .Z        0.06350  -0.03013  -0.01282   0.10809  -0.03304
   40 C3      .XX      -0.01574  -0.00025   0.00313   0.01194  -0.00027
   41 C3      .YY       0.00996   0.01465  -0.00998   0.01316  -0.00118
   42 C3      .ZZ      -0.00340  -0.00711   0.01133  -0.00536  -0.00026
   43 C3      .XY      -0.00000   0.00000  -0.00000  -0.00000   0.00000
   44 C3      .XZ      -0.00000   0.00000   0.00000  -0.00000   0.00000
   45 C3      .YZ       0.02406  -0.00050   0.00374   0.01244   0.00066
   46 C4      .S        0.00787   0.00972  -0.00547  -0.01071   0.04328
   47 C4      .S       -0.01557  -0.02592   0.01337   0.02955  -0.23496
   48 C4      .X        0.00000   0.00000  -0.00000  -0.00000  -0.00000
   49 C4      .Y        0.01438  -0.01165   0.00545  -0.03051  -0.14504
   50 C4      .Z       -0.01969  -0.02719   0.01462  -0.00563  -0.32487
   51 C4      .S       -0.08939   0.03250   0.04371  -0.03296  -0.13199
   52 C4      .X        0.00000  -0.00000  -0.00000  -0.00000  -0.00000
   53 C4      .Y        0.02882  -0.03946   0.00435  -0.00531  -0.06443
   54 C4      .Z       -0.03713   0.01486   0.02129  -0.06744  -0.06430
   55 C4      .XX       0.00063  -0.00118   0.00056   0.00200   0.01259
   56 C4      .YY       0.00056  -0.00359   0.00071  -0.00792   0.01375
   57 C4      .ZZ       0.00039   0.00889  -0.00224  -0.00033  -0.01125
   58 C4      .XY      -0.00000   0.00000  -0.00000   0.00000   0.00000
   59 C4      .XZ      -0.00000  -0.00000  -0.00000   0.00000  -0.00000
   60 C4      .YZ      -0.00004  -0.00401   0.00136   0.00985  -0.00749
   61 C5      .S        0.00972   0.00787  -0.00547   0.04328  -0.01071
   62 C5      .S       -0.02592  -0.01557   0.01337  -0.23496   0.02955
   63 C5      .X        0.00000   0.00000  -0.00000   0.00000  -0.00000
   64 C5      .Y        0.01165  -0.01438  -0.00545   0.14504   0.03051
   65 C5      .Z       -0.02719  -0.01969   0.01462  -0.32487  -0.00563
   66 C5      .S        0.03250  -0.08939   0.04371  -0.13199  -0.03296
   67 C5      .X        0.00000   0.00000  -0.00000  -0.00000   0.00000
   68 C5      .Y        0.03946  -0.02882  -0.00435   0.06443   0.00531
   69 C5      .Z        0.01486  -0.03713   0.02129  -0.06430  -0.06744
   70 C5      .XX      -0.00118   0.00063   0.00056   0.01259   0.00200
   71 C5      .YY      -0.00359   0.00056   0.00071   0.01375  -0.00792
   72 C5      .ZZ       0.00889   0.00039  -0.00224  -0.01125  -0.00033
   73 C5      .XY       0.00000   0.00000  -0.00000   0.00000  -0.00000
   74 C5      .XZ       0.00000  -0.00000  -0.00000  -0.00000   0.00000
   75 C5      .YZ       0.00401   0.00004  -0.00136   0.00749  -0.00985
   76 H6      .S       -0.02603  -0.02603   0.31324  -0.02416  -0.02416
   77 H6      .S       -0.05467  -0.05467   0.13956  -0.04721  -0.04721
   78 H7      .S        0.01722  -0.02208  -0.01149  -0.00552   0.02132
   79 H7      .S        0.04079  -0.06668  -0.01451   0.00747   0.07414
   80 H8      .S       -0.02208   0.01722  -0.01149   0.02132  -0.00552
   81 H8      .S       -0.06668   0.04079  -0.01451   0.07414   0.00747
   82 H9      .S        0.00527   0.01720  -0.00567  -0.02007   0.01960
   83 H9      .S       -0.00336   0.04267  -0.01227  -0.05876   0.06902
   84 H10     .S        0.01720   0.00527  -0.00567   0.01960  -0.02007
   85 H10     .S        0.04267  -0.00336  -0.01227   0.06902  -0.05876
                          11        12        13        14        15
                           O         O         O         O         O    
     Eigenvalues --   -19.41309 -16.68042 -16.68042 -15.95419 -15.95419
    1 N1      .S        0.01061   0.01237  -0.01237   0.00678   0.00678
    2 N1      .S       -0.02025  -0.03032   0.03032  -0.01521  -0.01521
    3 N1      .X       -0.00000  -0.00000  -0.00000  -0.00000   0.00000
    4 N1      .Y       -0.00000  -0.03673  -0.03673  -0.01534   0.01534
    5 N1      .Z        0.02678   0.02301  -0.02301   0.01135   0.01135
    6 N1      .S       -0.11462  -0.08438   0.08438  -0.05072  -0.05072
    7 N1      .X       -0.00000   0.00000   0.00000  -0.00000   0.00000
    8 N1      .Y        0.00000  -0.02541  -0.02541  -0.02137   0.02137
    9 N1      .Z        0.04140   0.01737  -0.01737   0.00404   0.00404
   10 N1      .XX       0.00031   0.00131  -0.00131  -0.00095  -0.00095
   11 N1      .YY       0.00134   0.01318  -0.01318  -0.00099  -0.00099
   12 N1      .ZZ       0.00428  -0.00716   0.00716   0.00501   0.00501
   13 N1      .XY       0.00000   0.00000   0.00000   0.00000   0.00000
   14 N1      .XZ      -0.00000  -0.00000   0.00000  -0.00000   0.00000
   15 N1      .YZ       0.00000   0.00171   0.00171  -0.00273   0.00273
   16 C2      .S        0.01126  -0.05140   0.00637  -0.01252   0.00611
   17 C2      .S       -0.02541   0.22221  -0.01513   0.03785  -0.01283
   18 C2      .X        0.00000  -0.00000  -0.00000   0.00000  -0.00000
   19 C2      .Y       -0.00655   0.34805   0.01695  -0.02305  -0.00008
   20 C2      .Z        0.03750   0.15767  -0.01510  -0.03846   0.01484
   21 C2      .S       -0.00061   0.20269  -0.05129   0.06624  -0.05528
   22 C2      .X        0.00000   0.00000   0.00000   0.00000  -0.00000
   23 C2      .Y       -0.04249   0.10520   0.01818  -0.01264   0.00109
   24 C2      .Z        0.02394   0.06838  -0.01589  -0.01928   0.02399
   25 C2      .XX      -0.00126  -0.01167  -0.00015  -0.00093  -0.00047
   26 C2      .YY       0.00608   0.01313   0.00448   0.00384   0.00236
   27 C2      .ZZ       0.00264  -0.00774  -0.00147  -0.00795   0.00079
   28 C2      .XY       0.00000   0.00000   0.00000  -0.00000  -0.00000
   29 C2      .XZ      -0.00000  -0.00000   0.00000  -0.00000   0.00000
   30 C2      .YZ       0.01243   0.01831   0.00053   0.00945   0.00369
   31 C3      .S        0.01126  -0.00637   0.05140   0.00611  -0.01252
   32 C3      .S       -0.02541   0.01513  -0.22221  -0.01283   0.03785
   33 C3      .X        0.00000  -0.00000  -0.00000   0.00000  -0.00000
   34 C3      .Y        0.00655   0.01695   0.34805   0.00008   0.02305
   35 C3      .Z        0.03750   0.01510  -0.15767   0.01484  -0.03846
   36 C3      .S       -0.00061   0.05129  -0.20269  -0.05528   0.06624
   37 C3      .X        0.00000  -0.00000   0.00000  -0.00000  -0.00000
   38 C3      .Y        0.04249   0.01818   0.10520  -0.00109   0.01264
   39 C3      .Z        0.02394   0.01589  -0.06838   0.02399  -0.01928
   40 C3      .XX      -0.00126   0.00015   0.01167  -0.00047  -0.00093
   41 C3      .YY       0.00608  -0.00448  -0.01313   0.00236   0.00384
   42 C3      .ZZ       0.00264   0.00147   0.00774   0.00079  -0.00795
   43 C3      .XY      -0.00000  -0.00000  -0.00000  -0.00000   0.00000
   44 C3      .XZ      -0.00000  -0.00000  -0.00000  -0.00000   0.00000
   45 C3      .YZ      -0.01243   0.00053   0.01831  -0.00369  -0.00945
   46 C4      .S       -0.04296   0.01135   0.00492   0.04693  -0.01086
   47 C4      .S        0.23123  -0.03755  -0.01062  -0.21216   0.03180
   48 C4      .X        0.00000   0.00000   0.00000   0.00000   0.00000
   49 C4      .Y       -0.35797  -0.01062   0.01428  -0.22560  -0.04288
   50 C4      .Z       -0.04905  -0.04386   0.00287   0.30964   0.00201
   51 C4      .S        0.16240  -0.03485  -0.02754  -0.19982   0.06411
   52 C4      .X        0.00000  -0.00000  -0.00000   0.00000   0.00000
   53 C4      .Y       -0.10319  -0.00955   0.01107  -0.07492  -0.02171
   54 C4      .Z       -0.04742  -0.00971   0.01517   0.09380   0.00994
   55 C4      .XX      -0.01189   0.00152  -0.00067   0.01191  -0.00136
   56 C4      .YY       0.01244   0.00581   0.00265   0.00116  -0.00238
   57 C4      .ZZ      -0.01378  -0.00304   0.00040  -0.00739  -0.00064
   58 C4      .XY      -0.00000   0.00000   0.00000   0.00000  -0.00000
   59 C4      .XZ       0.00000   0.00000  -0.00000  -0.00000   0.00000
   60 C4      .YZ      -0.00264   0.00800  -0.00308   0.01925  -0.01025
   61 C5      .S       -0.04296  -0.00492  -0.01135  -0.01086   0.04693
   62 C5      .S        0.23123   0.01062   0.03755   0.03180  -0.21216
   63 C5      .X        0.00000   0.00000   0.00000  -0.00000   0.00000
   64 C5      .Y        0.35797   0.01428  -0.01062   0.04288   0.22560
   65 C5      .Z       -0.04905  -0.00287   0.04386   0.00201   0.30964
   66 C5      .S        0.16240   0.02754   0.03485   0.06411  -0.19982
   67 C5      .X        0.00000   0.00000  -0.00000  -0.00000   0.00000
   68 C5      .Y        0.10319   0.01107  -0.00955   0.02171   0.07492
   69 C5      .Z       -0.04742  -0.01517   0.00971   0.00994   0.09380
   70 C5      .XX      -0.01189   0.00067  -0.00152  -0.00136   0.01191
   71 C5      .YY       0.01244  -0.00265  -0.00581  -0.00238   0.00116
   72 C5      .ZZ      -0.01378  -0.00040   0.00304  -0.00064  -0.00739
   73 C5      .XY       0.00000   0.00000  -0.00000   0.00000   0.00000
   74 C5      .XZ       0.00000   0.00000  -0.00000  -0.00000  -0.00000
   75 C5      .YZ       0.00264  -0.00308   0.00800   0.01025  -0.01925
   76 H6      .S        0.00791  -0.01126   0.01126   0.01080   0.01080
   77 H6      .S        0.00659  -0.00993   0.00993   0.02351   0.02351
   78 H7      .S        0.02120   0.31978   0.00687   0.01009   0.00621
   79 H7      .S        0.05575   0.23453   0.01751   0.01122   0.01817
   80 H8      .S        0.02120  -0.00687  -0.31978   0.00621   0.01009
   81 H8      .S        0.05575  -0.01751  -0.23453   0.01817   0.01122
   82 H9      .S       -0.02089  -0.01037   0.00624  -0.32041   0.01131
   83 H9      .S       -0.06903  -0.00644   0.02010  -0.24564   0.01511
   84 H10     .S       -0.02089  -0.00624   0.01037   0.01131  -0.32041
   85 H10     .S       -0.06903  -0.02010   0.00644   0.01511  -0.24564
                          16        17        18        19        20
                           O         O         O         V         V    
     Eigenvalues --    -8.79317  -8.79317 -10.01494   4.55722   4.55722
    1 N1      .S       -0.00000   0.00000   0.00000   0.00000   0.00000
    2 N1      .S        0.00000  -0.00000   0.00000   0.00000   0.00000
    3 N1      .X        0.03547   0.03547   0.55951  -0.30238  -0.30238
    4 N1      .Y        0.00000  -0.00000   0.00000   0.00000   0.00000
    5 N1      .Z        0.00000   0.00000  -0.00000  -0.00000  -0.00000
    6 N1      .S        0.00000  -0.00000  -0.00000  -0.00000  -0.00000
    7 N1      .X       -0.01086  -0.01086   0.42570  -0.22821  -0.22821
    8 N1      .Y        0.00000   0.00000  -0.00000   0.00000   0.00000
    9 N1      .Z        0.00000  -0.00000  -0.00000   0.00000   0.00000
   10 N1      .XX       0.00000  -0.00000  -0.00000   0.00000   0.00000
   11 N1      .YY       0.00000   0.00000  -0.00000   0.00000   0.00000
   12 N1      .ZZ      -0.00000   0.00000   0.00000   0.00000   0.00000
   13 N1      .XY       0.01785  -0.01785  -0.00000   0.00006  -0.00006
   14 N1      .XZ      -0.00798  -0.00798  -0.00152   0.00356   0.00356
   15 N1      .YZ       0.00000  -0.00000  -0.00000  -0.00000  -0.00000
   16 C2      .S       -0.00000   0.00000  -0.00000   0.00000   0.00000
   17 C2      .S       -0.00000   0.00000   0.00000   0.00000   0.00000
   18 C2      .X        0.40106  -0.12205   0.13036   0.09800   0.56132
   19 C2      .Y       -0.00000   0.00000  -0.00000  -0.00000  -0.00000
   20 C2      .Z       -0.00000   0.00000  -0.00000   0.00000   0.00000
   21 C2      .S        0.00000   0.00000   0.00000  -0.00000  -0.00000
   22 C2      .X        0.28214  -0.13077   0.05773   0.07364   0.40611
   23 C2      .Y       -0.00000  -0.00000   0.00000   0.00000   0.00000
   24 C2      .Z       -0.00000   0.00000  -0.00000   0.00000  -0.00000
   25 C2      .XX      -0.00000   0.00000   0.00000   0.00000   0.00000
   26 C2      .YY       0.00000  -0.00000   0.00000   0.00000   0.00000
   27 C2      .ZZ       0.00000  -0.00000   0.00000   0.00000   0.00000
   28 C2      .XY      -0.00728  -0.00405  -0.01627  -0.00238  -0.01206
   29 C2      .XZ      -0.01338  -0.00450   0.02000  -0.00188  -0.01646
   30 C2      .YZ      -0.00000   0.00000  -0.00000  -0.00000   0.00000
   31 C3      .S        0.00000  -0.00000   0.00000  -0.00000  -0.00000
   32 C3      .S       -0.00000  -0.00000   0.00000  -0.00000  -0.00000
   33 C3      .X       -0.12205   0.40106   0.13036   0.56132   0.09800
   34 C3      .Y        0.00000   0.00000  -0.00000   0.00000  -0.00000
   35 C3      .Z        0.00000  -0.00000  -0.00000   0.00000   0.00000
   36 C3      .S       -0.00000   0.00000   0.00000   0.00000   0.00000
   37 C3      .X       -0.13077   0.28214   0.05773   0.40611   0.07364
   38 C3      .Y        0.00000   0.00000   0.00000   0.00000   0.00000
   39 C3      .Z       -0.00000  -0.00000  -0.00000  -0.00000  -0.00000
   40 C3      .XX      -0.00000  -0.00000   0.00000  -0.00000  -0.00000
   41 C3      .YY       0.00000  -0.00000   0.00000   0.00000   0.00000
   42 C3      .ZZ      -0.00000   0.00000   0.00000   0.00000   0.00000
   43 C3      .XY       0.00405   0.00728   0.01627   0.01206   0.00238
   44 C3      .XZ      -0.00450  -0.01338   0.02000  -0.01646  -0.00188
   45 C3      .YZ      -0.00000  -0.00000  -0.00000   0.00000   0.00000
   46 C4      .S        0.00000   0.00000  -0.00000  -0.00000  -0.00000
   47 C4      .S       -0.00000  -0.00000   0.00000  -0.00000  -0.00000
   48 C4      .X        0.39112   0.08429  -0.14354   0.20824  -0.54166
   49 C4      .Y        0.00000   0.00000  -0.00000  -0.00000  -0.00000
   50 C4      .Z       -0.00000   0.00000  -0.00000  -0.00000  -0.00000
   51 C4      .S       -0.00000  -0.00000   0.00000   0.00000   0.00000
   52 C4      .X        0.27102   0.04071  -0.12762   0.15105  -0.39817
   53 C4      .Y       -0.00000   0.00000  -0.00000  -0.00000  -0.00000
   54 C4      .Z        0.00000  -0.00000  -0.00000   0.00000   0.00000
   55 C4      .XX      -0.00000  -0.00000  -0.00000  -0.00000  -0.00000
   56 C4      .YY      -0.00000  -0.00000  -0.00000   0.00000   0.00000
   57 C4      .ZZ      -0.00000  -0.00000  -0.00000  -0.00000  -0.00000
   58 C4      .XY       0.00183  -0.01704   0.00560  -0.00073  -0.00066
   59 C4      .XZ       0.01632  -0.00313   0.00419   0.00606  -0.02056
   60 C4      .YZ       0.00000   0.00000  -0.00000  -0.00000  -0.00000
   61 C5      .S       -0.00000  -0.00000  -0.00000   0.00000   0.00000
   62 C5      .S       -0.00000  -0.00000   0.00000   0.00000   0.00000
   63 C5      .X        0.08429   0.39112  -0.14354  -0.54166   0.20824
   64 C5      .Y       -0.00000  -0.00000   0.00000   0.00000   0.00000
   65 C5      .Z        0.00000  -0.00000   0.00000  -0.00000   0.00000
   66 C5      .S       -0.00000   0.00000  -0.00000  -0.00000  -0.00000
   67 C5      .X        0.04071   0.27102  -0.12762  -0.39817   0.15105
   68 C5      .Y       -0.00000   0.00000  -0.00000  -0.00000  -0.00000
   69 C5      .Z        0.00000  -0.00000  -0.00000  -0.00000  -0.00000
   70 C5      .XX       0.00000   0.00000  -0.00000   0.00000   0.00000
   71 C5      .YY       0.00000  -0.00000   0.00000   0.00000   0.00000
   72 C5      .ZZ       0.00000   0.00000  -0.00000   0.00000  -0.00000
   73 C5      .XY       0.01704  -0.00183  -0.00560   0.00066   0.00073
   74 C5      .XZ      -0.00313   0.01632   0.00419  -0.02056   0.00606
   75 C5      .YZ      -0.00000   0.00000  -0.00000   0.00000   0.00000
   76 H6      .S       -0.00000   0.00000   0.00000  -0.00000  -0.00000
   77 H6      .S       -0.00000   0.00000   0.00000  -0.00000  -0.00000
   78 H7      .S        0.00000   0.00000  -0.00000  -0.00000  -0.00000
   79 H7      .S        0.00000  -0.00000   0.00000   0.00000  -0.00000
   80 H8      .S        0.00000   0.00000   0.00000   0.00000   0.00000
   81 H8      .S        0.00000   0.00000   0.00000   0.00000   0.00000
   82 H9      .S        0.00000  -0.00000  -0.00000   0.00000  -0.00000
   83 H9      .S        0.00000  -0.00000  -0.00000   0.00000   0.00000
   84 H10     .S       -0.00000  -0.00000   0.00000  -0.00000  -0.00000
   85 H10     .S       -0.00000  -0.00000   0.00000  -0.00000  -0.00000
                          21        22        23        24        25
                           V         V         V         V         V    
     Eigenvalues --    14.69680  15.37044  15.37044  15.39852  15.39852
    1 N1      .S        0.08266   0.08184   0.08184   0.01107  -0.01107
    2 N1      .S       -0.33668  -0.49614  -0.49614   0.03122  -0.03122
    3 N1      .X       -0.00000   0.00000  -0.00000   0.00000  -0.00000
    4 N1      .Y        0.00000   0.58283  -0.58283   0.07142   0.07142
    5 N1      .Z       -0.67640   0.33953   0.33953  -0.06941   0.06941
    6 N1      .S       -0.45403  -0.09325  -0.09325  -0.18390   0.18390
    7 N1      .X        0.00000  -0.00000   0.00000   0.00000  -0.00000
    8 N1      .Y       -0.00000   0.16807  -0.16807   0.04524   0.04524
    9 N1      .Z       -0.34630   0.19000   0.19000   0.09789  -0.09789
   10 N1      .XX      -0.00924  -0.03312  -0.03312   0.00938  -0.00938
   11 N1      .YY      -0.01111  -0.05644  -0.05644   0.01277  -0.01277
   12 N1      .ZZ      -0.03107  -0.04843  -0.04843   0.00827  -0.00827
   13 N1      .XY       0.00000  -0.00000   0.00000   0.00000  -0.00000
   14 N1      .XZ       0.00000  -0.00000   0.00000   0.00000  -0.00000
   15 N1      .YZ      -0.00000  -0.01625   0.01625   0.00087   0.00087
   16 C2      .S       -0.00650  -0.00396  -0.09319  -0.00300   0.09263
   17 C2      .S       -0.02900  -0.03219   0.52254   0.02690  -0.34907
   18 C2      .X       -0.00000  -0.00000   0.00000   0.00000   0.00000
   19 C2      .Y        0.03908  -0.03624  -0.64014  -0.04380  -0.68202
   20 C2      .Z        0.04615  -0.07806   0.49863  -0.00065  -0.29393
   21 C2      .S        0.04100   0.05810   0.07447  -0.00221  -0.69145
   22 C2      .X        0.00000   0.00000  -0.00000  -0.00000  -0.00000
   23 C2      .Y       -0.04644  -0.06973  -0.03785   0.00444  -0.09359
   24 C2      .Z        0.00216   0.06864   0.13340   0.01942  -0.04296
   25 C2      .XX       0.00105   0.00261   0.00149   0.00173  -0.02863
   26 C2      .YY       0.00138  -0.00166   0.04028   0.00278  -0.04840
   27 C2      .ZZ      -0.00102   0.00121   0.02221   0.00146  -0.03447
   28 C2      .XY       0.00000  -0.00000  -0.00000  -0.00000  -0.00000
   29 C2      .XZ       0.00000   0.00000  -0.00000  -0.00000   0.00000
   30 C2      .YZ       0.00138   0.00176  -0.03258  -0.00060  -0.01408
   31 C3      .S       -0.00650  -0.09319  -0.00396  -0.09263   0.00300
   32 C3      .S       -0.02900   0.52254  -0.03219   0.34907  -0.02690
   33 C3      .X        0.00000  -0.00000  -0.00000   0.00000  -0.00000
   34 C3      .Y       -0.03908   0.64014   0.03624  -0.68202  -0.04380
   35 C3      .Z        0.04615   0.49863  -0.07806   0.29393   0.00065
   36 C3      .S        0.04100   0.07447   0.05810   0.69145   0.00221
   37 C3      .X       -0.00000   0.00000   0.00000  -0.00000   0.00000
   38 C3      .Y        0.04644   0.03785   0.06973  -0.09359   0.00444
   39 C3      .Z        0.00216   0.13340   0.06864   0.04296  -0.01942
   40 C3      .XX       0.00105   0.00149   0.00261   0.02863  -0.00173
   41 C3      .YY       0.00138   0.04028  -0.00166   0.04840  -0.00278
   42 C3      .ZZ      -0.00102   0.02221   0.00121   0.03447  -0.00146
   43 C3      .XY       0.00000   0.00000  -0.00000   0.00000  -0.00000
   44 C3      .XZ      -0.00000  -0.00000  -0.00000   0.00000  -0.00000
   45 C3      .YZ      -0.00138   0.03258  -0.00176  -0.01408  -0.00060
   46 C4      .S        0.00829   0.00301   0.00347  -0.00707  -0.01235
   47 C4      .S       -0.01312  -0.00310  -0.04131   0.00848  -0.06280
   48 C4      .X       -0.00000   0.00000  -0.00000   0.00000  -0.00000
   49 C4      .Y        0.01020   0.03061   0.12952  -0.03949   0.09614
   50 C4      .Z       -0.03976  -0.00385  -0.05447   0.02922  -0.02262
   51 C4      .S       -0.05033  -0.20913   0.23564   0.15897   0.27813
   52 C4      .X        0.00000   0.00000   0.00000   0.00000   0.00000
   53 C4      .Y        0.00794   0.16360  -0.27307  -0.07254  -0.09552
   54 C4      .Z       -0.03478  -0.00482   0.09625   0.04845   0.18180
   55 C4      .XX      -0.00105  -0.00630   0.00410   0.00323   0.00317
   56 C4      .YY      -0.00089  -0.00620   0.00203   0.00458   0.00183
   57 C4      .ZZ      -0.00195  -0.00559   0.01122   0.00357   0.00480
   58 C4      .XY       0.00000  -0.00000   0.00000   0.00000   0.00000
   59 C4      .XZ      -0.00000  -0.00000   0.00000  -0.00000   0.00000
   60 C4      .YZ      -0.00022   0.00004  -0.00084  -0.00043  -0.00197
   61 C5      .S        0.00829   0.00347   0.00301   0.01235   0.00707
   62 C5      .S       -0.01312  -0.04131  -0.00310   0.06280  -0.00848
   63 C5      .X        0.00000   0.00000   0.00000   0.00000   0.00000
   64 C5      .Y       -0.01020  -0.12952  -0.03061   0.09614  -0.03949
   65 C5      .Z       -0.03976  -0.05447  -0.00385   0.02262  -0.02922
   66 C5      .S       -0.05033   0.23564  -0.20913  -0.27813  -0.15897
   67 C5      .X       -0.00000  -0.00000  -0.00000  -0.00000  -0.00000
   68 C5      .Y       -0.00794   0.27307  -0.16360  -0.09552  -0.07254
   69 C5      .Z       -0.03478   0.09625  -0.00482  -0.18180  -0.04845
   70 C5      .XX      -0.00105   0.00410  -0.00630  -0.00317  -0.00323
   71 C5      .YY      -0.00089   0.00203  -0.00620  -0.00183  -0.00458
   72 C5      .ZZ      -0.00195   0.01122  -0.00559  -0.00480  -0.00357
   73 C5      .XY       0.00000  -0.00000   0.00000  -0.00000   0.00000
   74 C5      .XZ      -0.00000   0.00000  -0.00000  -0.00000  -0.00000
   75 C5      .YZ       0.00022   0.00084  -0.00004  -0.00197  -0.00043
   76 H6      .S        0.94648  -0.05507  -0.05507  -0.00806   0.00806
   77 H6      .S        0.45264  -0.01218  -0.01218  -0.02689   0.02689
   78 H7      .S       -0.00586  -0.02108   0.01267  -0.00209   0.86817
   79 H7      .S        0.03180  -0.02875  -0.07472  -0.01386   0.46807
   80 H8      .S       -0.00586   0.01267  -0.02108  -0.86817   0.00209
   81 H8      .S        0.03180  -0.07472  -0.02875  -0.46807   0.01386
   82 H9      .S        0.00381  -0.00014   0.03487  -0.00032   0.00640
   83 H9      .S        0.00700  -0.01530   0.11042   0.00530   0.07419
   84 H10     .S        0.00381   0.03487  -0.00014  -0.00640   0.00032
   85 H10     .S        0.00700   0.11042  -0.01530  -0.07419  -0.00530
                          26        27        28        29        30
                           V         V         V         V         V    
     Eigenvalues --    15.87991  15.87991  17.52626  19.12018  19.12018
    1 N1      .S       -0.00597  -0.00597   0.00000   0.00181   0.00181
    2 N1      .S        0.00164   0.00164  -0.00000  -0.01619  -0.01619
    3 N1      .X       -0.00000   0.00000   0.00000  -0.00000  -0.00000
    4 N1      .Y       -0.00896   0.00896   0.00381   0.05301  -0.05301
    5 N1      .Z       -0.03858  -0.03858   0.00000   0.10300   0.10300
    6 N1      .S        0.08575   0.08575  -0.00000   0.10884   0.10884
    7 N1      .X        0.00000  -0.00000  -0.00000   0.00000  -0.00000
    8 N1      .Y       -0.04246   0.04246  -0.13575  -0.08474   0.08474
    9 N1      .Z       -0.03626  -0.03626   0.00000  -0.06109  -0.06109
   10 N1      .XX      -0.00320  -0.00320   0.00000  -0.00606  -0.00606
   11 N1      .YY      -0.00332  -0.00332   0.00000  -0.00298  -0.00298
   12 N1      .ZZ      -0.00285  -0.00285   0.00000  -0.00300  -0.00300
   13 N1      .XY      -0.00000  -0.00000  -0.00000   0.00000  -0.00000
   14 N1      .XZ      -0.00000   0.00000   0.00000   0.00000   0.00000
   15 N1      .YZ       0.00050  -0.00050  -0.00073  -0.00291   0.00291
   16 C2      .S       -0.00648   0.01175   0.00518  -0.09457  -0.00202
   17 C2      .S        0.00442   0.04253  -0.01357   0.63826  -0.03414
   18 C2      .X        0.00000  -0.00000  -0.00000  -0.00000  -0.00000
   19 C2      .Y       -0.03427  -0.08305   0.12105  -0.20195   0.01878
   20 C2      .Z       -0.02693   0.03372  -0.02455  -0.76305  -0.02564
   21 C2      .S        0.14884  -0.23616   0.14168   0.04059   0.11725
   22 C2      .X       -0.00000   0.00000   0.00000   0.00000   0.00000
   23 C2      .Y       -0.06526   0.15067  -0.17757   0.04958  -0.01528
   24 C2      .Z       -0.04198   0.09850   0.07064  -0.13049  -0.11055
   25 C2      .XX       0.00472  -0.00681   0.00556   0.00962   0.00301
   26 C2      .YY       0.00518  -0.00781   0.00574   0.01574   0.00284
   27 C2      .ZZ       0.00539  -0.00454   0.00857   0.03759   0.00228
   28 C2      .XY      -0.00000  -0.00000  -0.00000  -0.00000  -0.00000
   29 C2      .XZ      -0.00000   0.00000   0.00000  -0.00000   0.00000
   30 C2      .YZ       0.00054  -0.00188   0.00323   0.01542   0.00024
   31 C3      .S        0.01175  -0.00648  -0.00518  -0.00202  -0.09457
   32 C3      .S        0.04253   0.00442   0.01357  -0.03414   0.63826
   33 C3      .X        0.00000   0.00000  -0.00000  -0.00000  -0.00000
   34 C3      .Y        0.08305   0.03427   0.12105  -0.01878   0.20195
   35 C3      .Z        0.03372  -0.02693   0.02455  -0.02564  -0.76305
   36 C3      .S       -0.23616   0.14884  -0.14168   0.11725   0.04059
   37 C3      .X       -0.00000  -0.00000   0.00000   0.00000   0.00000
   38 C3      .Y       -0.15067   0.06526  -0.17757   0.01528  -0.04958
   39 C3      .Z        0.09850  -0.04198  -0.07064  -0.11055  -0.13049
   40 C3      .XX      -0.00681   0.00472  -0.00556   0.00301   0.00962
   41 C3      .YY      -0.00781   0.00518  -0.00574   0.00284   0.01574
   42 C3      .ZZ      -0.00454   0.00539  -0.00857   0.00228   0.03759
   43 C3      .XY      -0.00000   0.00000   0.00000   0.00000   0.00000
   44 C3      .XZ       0.00000   0.00000  -0.00000   0.00000   0.00000
   45 C3      .YZ       0.00188  -0.00054   0.00323  -0.00024  -0.01542
   46 C4      .S        0.01083  -0.09486  -0.09293   0.09171  -0.00354
   47 C4      .S        0.04975   0.33912   0.57482  -0.62532   0.01590
   48 C4      .X       -0.00000   0.00000   0.00000  -0.00000   0.00000
   49 C4      .Y        0.00718   0.44709  -0.77021  -0.27704  -0.00214
   50 C4      .Z        0.08993  -0.59458  -0.04589  -0.75690   0.12170
   51 C4      .S       -0.25124   0.76216   0.02283   0.01382  -0.18864
   52 C4      .X       -0.00000  -0.00000   0.00000  -0.00000  -0.00000
   53 C4      .Y        0.14010   0.07056  -0.11627  -0.14035   0.00077
   54 C4      .Z       -0.13515  -0.08790  -0.08120  -0.08706  -0.19982
   55 C4      .XX      -0.00327   0.02271   0.01073  -0.01279  -0.00473
   56 C4      .YY      -0.00266   0.03320   0.04535  -0.01657  -0.00914
   57 C4      .ZZ      -0.00343   0.03906   0.01480  -0.04778  -0.00406
   58 C4      .XY       0.00000  -0.00000  -0.00000  -0.00000  -0.00000
   59 C4      .XZ       0.00000  -0.00000  -0.00000  -0.00000  -0.00000
   60 C4      .YZ       0.00220  -0.01374  -0.00408  -0.00751   0.00124
   61 C5      .S       -0.09486   0.01083   0.09293  -0.00354   0.09171
   62 C5      .S        0.33912   0.04975  -0.57482   0.01590  -0.62532
   63 C5      .X       -0.00000  -0.00000   0.00000   0.00000  -0.00000
   64 C5      .Y       -0.44709  -0.00718  -0.77021   0.00214   0.27704
   65 C5      .Z       -0.59458   0.08993   0.04589   0.12170  -0.75690
   66 C5      .S        0.76216  -0.25124  -0.02283  -0.18864   0.01382
   67 C5      .X        0.00000   0.00000  -0.00000   0.00000  -0.00000
   68 C5      .Y       -0.07056  -0.14010  -0.11627  -0.00077   0.14035
   69 C5      .Z       -0.08790  -0.13515   0.08120  -0.19982  -0.08706
   70 C5      .XX       0.02271  -0.00327  -0.01073  -0.00473  -0.01279
   71 C5      .YY       0.03320  -0.00266  -0.04535  -0.00914  -0.01657
   72 C5      .ZZ       0.03906  -0.00343  -0.01480  -0.00406  -0.04778
   73 C5      .XY       0.00000  -0.00000  -0.00000  -0.00000  -0.00000
   74 C5      .XZ      -0.00000   0.00000  -0.00000   0.00000  -0.00000
   75 C5      .YZ       0.01374  -0.00220  -0.00408  -0.00124   0.00751
   76 H6      .S       -0.00107  -0.00107   0.00000   0.02481   0.02481
   77 H6      .S       -0.00074  -0.00074   0.00000   0.01597   0.01597
   78 H7      .S       -0.00012  -0.00279   0.01690   0.04902  -0.00256
   79 H7      .S        0.00545  -0.06523   0.06737  -0.06851   0.01343
   80 H8      .S       -0.00279  -0.00012  -0.01690  -0.00256   0.04902
   81 H8      .S       -0.06523   0.00545  -0.06737   0.01343  -0.06851
   82 H9      .S       -0.00635  -0.86448   0.03910  -0.04293  -0.02205
   83 H9      .S       -0.07229  -0.49289  -0.05744   0.06158  -0.07591
   84 H10     .S       -0.86448  -0.00635  -0.03910  -0.02205  -0.04293
   85 H10     .S       -0.49289  -0.07229   0.05744  -0.07591   0.06158
                          31        32        33        34        35
                           V         V         V         V         V    
     Eigenvalues --    15.45043  16.13759  16.13759  16.78239  16.78239
    1 N1      .S        0.00153  -0.02001  -0.02001   0.00151   0.00151
    2 N1      .S        0.13919  -0.05463  -0.05463  -0.00986  -0.00986
    3 N1      .X       -0.00000  -0.00000  -0.00000  -0.00000   0.00000
    4 N1      .Y       -0.00000  -0.02854   0.02854  -0.01302   0.01302
    5 N1      .Z        0.18019   0.00433   0.00433   0.00584   0.00584
    6 N1      .S       -0.36742   0.80712   0.80712  -0.26441  -0.26441
    7 N1      .X        0.00000  -0.00000  -0.00000   0.00000  -0.00000
    8 N1      .Y       -0.00000  -0.03520   0.03520  -0.10853   0.10853
    9 N1      .Z       -1.28001  -0.60778  -0.60778   0.01908   0.01908
   10 N1      .XX       0.02976  -0.03186  -0.03186   0.00665   0.00665
   11 N1      .YY       0.03012  -0.03186  -0.03186   0.00663   0.00663
   12 N1      .ZZ       0.02940  -0.03200  -0.03200   0.00673   0.00673
   13 N1      .XY      -0.00000  -0.00000   0.00000   0.00000   0.00000
   14 N1      .XZ      -0.00000  -0.00000   0.00000  -0.00000   0.00000
   15 N1      .YZ      -0.00000  -0.00008   0.00008   0.00003  -0.00003
   16 C2      .S        0.00404  -0.01210   0.00238   0.00011  -0.00908
   17 C2      .S        0.03296  -0.08163  -0.14279  -0.10251   0.00739
   18 C2      .X        0.00000   0.00000  -0.00000   0.00000  -0.00000
   19 C2      .Y        0.05123   0.03743  -0.19753  -0.02355  -0.00077
   20 C2      .Z        0.00889  -0.02867  -0.08310  -0.04800   0.03553
   21 C2      .S       -0.41673   0.05279   0.14774   1.22460  -0.45561
   22 C2      .X       -0.00000   0.00000   0.00000  -0.00000   0.00000
   23 C2      .Y        0.43596  -0.13083   2.40153  -0.88070   0.12450
   24 C2      .Z       -0.17729  -0.10518   1.15417  -0.44351   0.07282
   25 C2      .XX      -0.01511  -0.00535  -0.00690   0.04417  -0.01943
   26 C2      .YY      -0.01482  -0.00517  -0.00682   0.04425  -0.01946
   27 C2      .ZZ      -0.01526  -0.00532  -0.00706   0.04418  -0.01940
   28 C2      .XY      -0.00000   0.00000  -0.00000  -0.00000   0.00000
   29 C2      .XZ       0.00000  -0.00000  -0.00000   0.00000  -0.00000
   30 C2      .YZ      -0.00023  -0.00009   0.00018  -0.00024   0.00010
   31 C3      .S        0.00404   0.00238  -0.01210  -0.00908   0.00011
   32 C3      .S        0.03296  -0.14279  -0.08163   0.00739  -0.10251
   33 C3      .X        0.00000   0.00000   0.00000   0.00000  -0.00000
   34 C3      .Y       -0.05123   0.19753  -0.03743   0.00077   0.02355
   35 C3      .Z        0.00889  -0.08310  -0.02867   0.03553  -0.04800
   36 C3      .S       -0.41673   0.14774   0.05279  -0.45561   1.22460
   37 C3      .X       -0.00000  -0.00000   0.00000   0.00000   0.00000
   38 C3      .Y       -0.43596  -2.40153   0.13083  -0.12450   0.88070
   39 C3      .Z       -0.17729   1.15417  -0.10518   0.07282  -0.44351
   40 C3      .XX      -0.01511  -0.00690  -0.00535  -0.01943   0.04417
   41 C3      .YY      -0.01482  -0.00682  -0.00517  -0.01946   0.04425
   42 C3      .ZZ      -0.01526  -0.00706  -0.00532  -0.01940   0.04418
   43 C3      .XY      -0.00000  -0.00000   0.00000   0.00000  -0.00000
   44 C3      .XZ      -0.00000   0.00000   0.00000  -0.00000   0.00000
   45 C3      .YZ       0.00023  -0.00018   0.00009  -0.00010   0.00024
   46 C4      .S        0.00571  -0.00671  -0.00581   0.00840  -0.00720
   47 C4      .S        0.01213  -0.00747  -0.10902  -0.08949  -0.10158
   48 C4      .X        0.00000  -0.00000   0.00000   0.00000   0.00000
   49 C4      .Y        0.00847   0.03109   0.01850  -0.14814  -0.05053
   50 C4      .Z        0.00076   0.00215   0.05062   0.18533   0.00249
   51 C4      .S       -0.04053  -0.48580   1.44116  -0.17606   1.28104
   52 C4      .X        0.00000  -0.00000  -0.00000   0.00000  -0.00000
   53 C4      .Y       -0.08497   0.13550  -0.52261   1.68235  -0.70320
   54 C4      .Z       -0.00938  -0.09610   0.91534  -2.24755   0.76072
   55 C4      .XX       0.00036  -0.01484   0.03082  -0.01379   0.02700
   56 C4      .YY       0.00030  -0.01469   0.03100  -0.01383   0.02689
   57 C4      .ZZ       0.00012  -0.01490   0.03069  -0.01379   0.02712
   58 C4      .XY       0.00000  -0.00000  -0.00000  -0.00000   0.00000
   59 C4      .XZ       0.00000  -0.00000   0.00000  -0.00000   0.00000
   60 C4      .YZ       0.00001  -0.00005   0.00005  -0.00015   0.00015
   61 C5      .S        0.00571  -0.00581  -0.00671  -0.00720   0.00840
   62 C5      .S        0.01213  -0.10902  -0.00747  -0.10158  -0.08949
   63 C5      .X        0.00000   0.00000  -0.00000  -0.00000  -0.00000
   64 C5      .Y       -0.00847  -0.01850  -0.03109   0.05053   0.14814
   65 C5      .Z        0.00076   0.05062   0.00215   0.00249   0.18533
   66 C5      .S       -0.04053   1.44116  -0.48580   1.28104  -0.17606
   67 C5      .X       -0.00000  -0.00000  -0.00000  -0.00000   0.00000
   68 C5      .Y        0.08497   0.52261  -0.13550   0.70320  -1.68235
   69 C5      .Z       -0.00938   0.91534  -0.09610   0.76072  -2.24755
   70 C5      .XX       0.00036   0.03082  -0.01484   0.02700  -0.01379
   71 C5      .YY       0.00030   0.03100  -0.01469   0.02689  -0.01383
   72 C5      .ZZ       0.00012   0.03069  -0.01490   0.02712  -0.01379
   73 C5      .XY       0.00000   0.00000   0.00000   0.00000   0.00000
   74 C5      .XZ      -0.00000  -0.00000  -0.00000   0.00000   0.00000
   75 C5      .YZ      -0.00001  -0.00005   0.00005  -0.00015   0.00015
   76 H6      .S       -0.81775   0.07198   0.07198   0.01793   0.01793
   77 H6      .S        2.41254   0.18094   0.18094   0.02516   0.02516
   78 H7      .S        0.00209   0.02198   0.82777   0.05500   0.01209
   79 H7      .S       -0.17250   0.07436  -3.20500   0.32842   0.00276
   80 H8      .S        0.00209   0.82777   0.02198   0.01209   0.05500
   81 H8      .S       -0.17250  -3.20500   0.07436   0.00276   0.32842
   82 H9      .S        0.01062   0.00882   0.05371   0.82967   0.05988
   83 H9      .S        0.00181  -0.00108   0.32760  -3.22723   0.34201
   84 H10     .S        0.01062   0.05371   0.00882   0.05988   0.82967
   85 H10     .S        0.00181   0.32760  -0.00108   0.34201  -3.22723
                          36        37        38        39        40
                           V         V         V         V         V    
     Eigenvalues --    19.78525  19.78525  20.82023  20.82023  25.50488
    1 N1      .S        0.03090   0.03090   0.01341   0.01341   0.00000
    2 N1      .S       -0.05597  -0.05597  -0.05723  -0.05723  -0.00000
    3 N1      .X       -0.00000   0.00000  -0.00000   0.00000   0.87929
    4 N1      .Y       -0.10247   0.10247  -0.03799   0.03799  -0.00000
    5 N1      .Z        0.01452   0.01452   0.03539   0.03539  -0.00000
    6 N1      .S       -1.85644  -1.85644  -0.49793  -0.49793  -0.00000
    7 N1      .X       -0.00000  -0.00000  -0.00000  -0.00000  -1.26794
    8 N1      .Y       -1.35563   1.35563  -0.60693   0.60693  -0.00000
    9 N1      .Z        0.11681   0.11681  -0.03073  -0.03073  -0.00000
   10 N1      .XX       0.04108   0.04108   0.00904   0.00904   0.00000
   11 N1      .YY       0.00115   0.00115   0.00703   0.00703   0.00000
   12 N1      .ZZ       0.04681   0.04681   0.01153   0.01153  -0.00000
   13 N1      .XY      -0.00000  -0.00000  -0.00000   0.00000   0.00000
   14 N1      .XZ      -0.00000   0.00000  -0.00000   0.00000  -0.39526
   15 N1      .YZ       0.02551  -0.02551   0.00003  -0.00003   0.00000
   16 C2      .S       -0.00747   0.01066  -0.00316  -0.00769  -0.00000
   17 C2      .S       -0.34357   0.00821   0.06581   0.00805   0.00000
   18 C2      .X        0.00000  -0.00000   0.00000  -0.00000   0.01717
   19 C2      .Y        0.41776   0.08198  -0.08842  -0.01762  -0.00000
   20 C2      .Z       -0.57951  -0.02747   0.05748  -0.05583  -0.00000
   21 C2      .S        1.17161  -0.54265  -1.04225   0.13454   0.00000
   22 C2      .X       -0.00000  -0.00000   0.00000   0.00000   0.37337
   23 C2      .Y       -2.58245   0.47450  -1.24936   0.35038  -0.00000
   24 C2      .Z        2.42473  -0.33878   1.21947  -0.44987  -0.00000
   25 C2      .XX       0.07814  -0.02441  -0.03663   0.00619  -0.00000
   26 C2      .YY      -0.01692  -0.02716  -0.04588   0.00391  -0.00000
   27 C2      .ZZ       0.02603  -0.01897  -0.04712   0.00445   0.00000
   28 C2      .XY       0.00000  -0.00000   0.00000   0.00000   0.04198
   29 C2      .XZ       0.00000   0.00000  -0.00000   0.00000  -0.01367
   30 C2      .YZ      -0.23077   0.00047  -0.01573   0.00095  -0.00000
   31 C3      .S        0.01066  -0.00747  -0.00769  -0.00316   0.00000
   32 C3      .S        0.00821  -0.34357   0.00805   0.06581  -0.00000
   33 C3      .X        0.00000  -0.00000   0.00000  -0.00000   0.01717
   34 C3      .Y       -0.08198  -0.41776   0.01762   0.08842  -0.00000
   35 C3      .Z       -0.02747  -0.57951  -0.05583   0.05748  -0.00000
   36 C3      .S       -0.54265   1.17161   0.13454  -1.04225  -0.00000
   37 C3      .X        0.00000  -0.00000   0.00000   0.00000   0.37337
   38 C3      .Y       -0.47450   2.58245  -0.35038   1.24936  -0.00000
   39 C3      .Z       -0.33878   2.42473  -0.44987   1.21947   0.00000
   40 C3      .XX      -0.02441   0.07814   0.00619  -0.03663   0.00000
   41 C3      .YY      -0.02716  -0.01692   0.00391  -0.04588   0.00000
   42 C3      .ZZ      -0.01897   0.02603   0.00445  -0.04712   0.00000
   43 C3      .XY      -0.00000  -0.00000   0.00000   0.00000  -0.04198
   44 C3      .XZ       0.00000   0.00000   0.00000  -0.00000  -0.01367
   45 C3      .YZ      -0.00047   0.23077  -0.00095   0.01573  -0.00000
   46 C4      .S        0.01006  -0.00067  -0.00099   0.00391   0.00000
   47 C4      .S        0.04403   0.03179   0.15545  -0.07600   0.00000
   48 C4      .X       -0.00000   0.00000  -0.00000   0.00000  -0.01470
   49 C4      .Y        0.06570  -0.08962  -0.74619  -0.12825   0.00000
   50 C4      .Z       -0.00484   0.00684  -0.31303  -0.06223  -0.00000
   51 C4      .S        0.12679   0.99954  -0.59108   2.33613  -0.00000
   52 C4      .X        0.00000   0.00000   0.00000  -0.00000  -0.08056
   53 C4      .Y        1.79177  -0.64866   3.85091  -1.54781   0.00000
   54 C4      .Z       -0.06380  -0.15270   1.00273  -0.65728  -0.00000
   55 C4      .XX       0.00434   0.02934  -0.05178   0.06417   0.00000
   56 C4      .YY      -0.00018   0.02846  -0.16175   0.09912  -0.00000
   57 C4      .ZZ       0.05817   0.02821   0.03931   0.06295  -0.00000
   58 C4      .XY      -0.00000   0.00000   0.00000  -0.00000   0.00117
   59 C4      .XZ       0.00000  -0.00000   0.00000   0.00000   0.00388
   60 C4      .YZ      -0.01153   0.00551  -0.03198   0.00525   0.00000
   61 C5      .S       -0.00067   0.01006   0.00391  -0.00099  -0.00000
   62 C5      .S        0.03179   0.04403  -0.07600   0.15545  -0.00000
   63 C5      .X       -0.00000   0.00000  -0.00000   0.00000  -0.01470
   64 C5      .Y        0.08962  -0.06570   0.12825   0.74619  -0.00000
   65 C5      .Z        0.00684  -0.00484  -0.06223  -0.31303  -0.00000
   66 C5      .S        0.99954   0.12679   2.33613  -0.59108   0.00000
   67 C5      .X       -0.00000  -0.00000  -0.00000  -0.00000  -0.08056
   68 C5      .Y        0.64866  -1.79177   1.54781  -3.85091   0.00000
   69 C5      .Z       -0.15270  -0.06380  -0.65728   1.00273   0.00000
   70 C5      .XX       0.02934   0.00434   0.06417  -0.05178  -0.00000
   71 C5      .YY       0.02846  -0.00018   0.09912  -0.16175  -0.00000
   72 C5      .ZZ       0.02821   0.05817   0.06295   0.03931  -0.00000
   73 C5      .XY       0.00000  -0.00000   0.00000  -0.00000  -0.00117
   74 C5      .XZ      -0.00000  -0.00000  -0.00000   0.00000   0.00388
   75 C5      .YZ      -0.00551   0.01153  -0.00525   0.03198   0.00000
   76 H6      .S        0.06140   0.06140   0.03764   0.03764   0.00000
   77 H6      .S       -0.07487  -0.07487   0.00550   0.00550   0.00000
   78 H7      .S        0.21183  -0.02270   0.18447  -0.01513   0.00000
   79 H7      .S        0.41731  -0.06325   0.29673  -0.04709  -0.00000
   80 H8      .S       -0.02270   0.21183  -0.01513   0.18447  -0.00000
   81 H8      .S       -0.06325   0.41731  -0.04709   0.29673  -0.00000
   82 H9      .S       -0.19305  -0.02806  -0.20743  -0.09499   0.00000
   83 H9      .S       -0.36068   0.00342  -0.64401   0.00878  -0.00000
   84 H10     .S       -0.02806  -0.19305  -0.09499  -0.20743   0.00000
   85 H10     .S        0.00342  -0.36068   0.00878  -0.64401   0.00000
                          41        42        43        44        45
                           V         V         V         V         V    
     Eigenvalues --    28.54022  28.54022  29.93609  29.93609  30.07849
    1 N1      .S        0.04877   0.04877  -0.00000  -0.00000   0.00000
    2 N1      .S        0.09592   0.09592  -0.00000  -0.00000  -0.00000
    3 N1      .X       -0.00000   0.00000   0.01412   0.01412  -0.02220
    4 N1      .Y       -0.03849   0.03849   0.00000   0.00000  -0.00000
    5 N1      .Z       -0.01779  -0.01779   0.00000  -0.00000  -0.00000
    6 N1      .S       -1.69747  -1.69747   0.00000   0.00000  -0.00000
    7 N1      .X       -0.00000   0.00000   0.09137   0.09137   0.01154
    8 N1      .Y       -0.45449   0.45449  -0.00000  -0.00000  -0.00000
    9 N1      .Z        0.69198   0.69198   0.00000  -0.00000   0.00000
   10 N1      .XX       0.07748   0.07748  -0.00000  -0.00000   0.00000
   11 N1      .YY       0.15499   0.15499  -0.00000  -0.00000   0.00000
   12 N1      .ZZ       0.06652   0.06652  -0.00000  -0.00000   0.00000
   13 N1      .XY       0.00000   0.00000   0.08156  -0.08156   0.00050
   14 N1      .XZ       0.00000  -0.00000   0.05944   0.05944  -0.00645
   15 N1      .YZ      -0.03696   0.03696   0.00000   0.00000   0.00000
   16 C2      .S       -0.09834   0.01488   0.00000  -0.00000   0.00000
   17 C2      .S       -1.76708   0.11693  -0.00000   0.00000  -0.00000
   18 C2      .X        0.00000  -0.00000  -0.02124   0.81695  -0.01756
   19 C2      .Y       -0.20644  -0.04757  -0.00000   0.00000   0.00000
   20 C2      .Z       -0.03784   0.04724  -0.00000   0.00000   0.00000
   21 C2      .S        6.80361  -0.50979  -0.00000   0.00000   0.00000
   22 C2      .X       -0.00000  -0.00000   0.07689  -1.16739   0.24357
   23 C2      .Y       -1.00498   0.25908   0.00000  -0.00000  -0.00000
   24 C2      .Z       -1.22215   0.23124   0.00000   0.00000  -0.00000
   25 C2      .XX      -0.08436  -0.00988  -0.00000  -0.00000   0.00000
   26 C2      .YY       0.02735  -0.00493   0.00000  -0.00000   0.00000
   27 C2      .ZZ      -0.25398  -0.02001   0.00000  -0.00000   0.00000
   28 C2      .XY       0.00000  -0.00000  -0.00829  -0.41922   0.03111
   29 C2      .XZ      -0.00000  -0.00000  -0.00100   0.46556   0.09399
   30 C2      .YZ       0.29744   0.00232  -0.00000  -0.00000   0.00000
   31 C3      .S        0.01488  -0.09834   0.00000   0.00000   0.00000
   32 C3      .S        0.11693  -1.76708  -0.00000   0.00000   0.00000
   33 C3      .X        0.00000  -0.00000   0.81695  -0.02124  -0.00252
   34 C3      .Y        0.04757   0.20644   0.00000   0.00000   0.00000
   35 C3      .Z        0.04724  -0.03784  -0.00000  -0.00000   0.00000
   36 C3      .S       -0.50979   6.80361  -0.00000  -0.00000  -0.00000
   37 C3      .X        0.00000  -0.00000  -1.16739   0.07689  -0.10178
   38 C3      .Y       -0.25908   1.00498   0.00000  -0.00000  -0.00000
   39 C3      .Z        0.23124  -1.22215  -0.00000   0.00000   0.00000
   40 C3      .XX      -0.00988  -0.08436   0.00000   0.00000   0.00000
   41 C3      .YY      -0.00493   0.02735   0.00000   0.00000  -0.00000
   42 C3      .ZZ      -0.02001  -0.25398   0.00000  -0.00000  -0.00000
   43 C3      .XY       0.00000   0.00000   0.41922   0.00829  -0.00508
   44 C3      .XZ       0.00000   0.00000   0.46556  -0.00100  -0.00292
   45 C3      .YZ      -0.00232  -0.29744  -0.00000  -0.00000   0.00000
   46 C4      .S        0.03391   0.00536   0.00000   0.00000   0.00000
   47 C4      .S        0.33030  -0.02744  -0.00000   0.00000   0.00000
   48 C4      .X        0.00000   0.00000  -0.00046   0.05875   0.82123
   49 C4      .Y       -0.02769  -0.05736  -0.00000  -0.00000  -0.00000
   50 C4      .Z       -0.08481   0.00724   0.00000   0.00000   0.00000
   51 C4      .S       -3.56017   0.85185   0.00000  -0.00000  -0.00000
   52 C4      .X       -0.00000  -0.00000  -0.11665   0.44319  -1.21627
   53 C4      .Y       -0.00330  -0.24584  -0.00000   0.00000   0.00000
   54 C4      .Z       -2.26682   0.76323   0.00000  -0.00000  -0.00000
   55 C4      .XX      -0.05596   0.02172  -0.00000   0.00000   0.00000
   56 C4      .YY      -0.03888   0.02181  -0.00000  -0.00000  -0.00000
   57 C4      .ZZ      -0.07747   0.02337  -0.00000   0.00000  -0.00000
   58 C4      .XY       0.00000   0.00000  -0.00169   0.02852   0.29767
   59 C4      .XZ       0.00000   0.00000  -0.00534   0.04076   0.53544
   60 C4      .YZ       0.04194  -0.00868   0.00000   0.00000   0.00000
   61 C5      .S        0.00536   0.03391   0.00000  -0.00000  -0.00000
   62 C5      .S       -0.02744   0.33030  -0.00000  -0.00000  -0.00000
   63 C5      .X       -0.00000   0.00000   0.05875  -0.00046   0.05453
   64 C5      .Y        0.05736   0.02769  -0.00000   0.00000  -0.00000
   65 C5      .Z        0.00724  -0.08481  -0.00000  -0.00000  -0.00000
   66 C5      .S        0.85185  -3.56017  -0.00000   0.00000   0.00000
   67 C5      .X       -0.00000   0.00000   0.44319  -0.11665   0.42693
   68 C5      .Y        0.24584   0.00330  -0.00000   0.00000   0.00000
   69 C5      .Z        0.76323  -2.26682  -0.00000   0.00000   0.00000
   70 C5      .XX       0.02172  -0.05596  -0.00000  -0.00000  -0.00000
   71 C5      .YY       0.02181  -0.03888   0.00000   0.00000  -0.00000
   72 C5      .ZZ       0.02337  -0.07747  -0.00000  -0.00000  -0.00000
   73 C5      .XY       0.00000   0.00000  -0.02852   0.00169   0.03827
   74 C5      .XZ      -0.00000   0.00000   0.04076  -0.00534  -0.01180
   75 C5      .YZ       0.00868  -0.04194   0.00000  -0.00000   0.00000
   76 H6      .S       -0.02377  -0.02377  -0.00000   0.00000   0.00000
   77 H6      .S       -0.10750  -0.10750  -0.00000  -0.00000  -0.00000
   78 H7      .S       -0.30519  -0.02741   0.00000  -0.00000   0.00000
   79 H7      .S       -0.59875  -0.11733  -0.00000  -0.00000   0.00000
   80 H8      .S       -0.02741  -0.30519   0.00000   0.00000   0.00000
   81 H8      .S       -0.11733  -0.59875   0.00000  -0.00000  -0.00000
   82 H9      .S       -0.00814   0.04393   0.00000  -0.00000  -0.00000
   83 H9      .S       -0.44889   0.18720   0.00000  -0.00000  -0.00000
   84 H10     .S        0.04393  -0.00814   0.00000   0.00000   0.00000
   85 H10     .S        0.18720  -0.44889  -0.00000  -0.00000   0.00000
                          46        47        48        49        50
                           V         V         V         V         V    
     Eigenvalues --    30.07849  31.59111  34.76658  34.76658  36.93472
    1 N1      .S        0.00000  -0.00000   0.02823   0.02823  -0.01488
    2 N1      .S        0.00000   0.00000  -0.00893  -0.00893   0.02437
    3 N1      .X       -0.02220  -0.00000   0.00000  -0.00000  -0.00000
    4 N1      .Y       -0.00000   0.79357   0.09316  -0.09316  -0.07688
    5 N1      .Z       -0.00000  -0.00000   0.08578   0.08578   0.01991
    6 N1      .S       -0.00000   0.00000  -1.57229  -1.57229   0.93195
    7 N1      .X        0.01154  -0.00000   0.00000   0.00000  -0.00000
    8 N1      .Y       -0.00000  -4.17161  -0.14971   0.14971  -0.26087
    9 N1      .Z        0.00000   0.00000   1.20704   1.20704  -0.26415
   10 N1      .XX       0.00000   0.00000   0.03320   0.03320  -0.03436
   11 N1      .YY      -0.00000   0.00000  -0.02041  -0.02041  -0.01868
   12 N1      .ZZ       0.00000   0.00000   0.08969   0.08969  -0.03800
   13 N1      .XY      -0.00050   0.00000   0.00000  -0.00000  -0.00000
   14 N1      .XZ      -0.00645  -0.00000  -0.00000  -0.00000   0.00000
   15 N1      .YZ       0.00000   0.39270  -0.00295   0.00295  -0.00414
   16 C2      .S        0.00000   0.02404   0.02759  -0.03165   0.01860
   17 C2      .S       -0.00000   0.00884   0.23575  -0.73217  -0.00359
   18 C2      .X       -0.00252  -0.00000  -0.00000   0.00000  -0.00000
   19 C2      .Y       -0.00000  -0.21707  -0.07897   0.53073   0.04568
   20 C2      .Z        0.00000   0.23619   0.12207   0.44548  -0.15831
   21 C2      .S        0.00000   2.18040  -0.27958   3.45203   1.34519
   22 C2      .X       -0.10178   0.00000  -0.00000  -0.00000   0.00000
   23 C2      .Y       -0.00000  -0.90077   0.45006  -4.58594  -0.26032
   24 C2      .Z        0.00000   1.79980   0.34989  -3.35349  -0.35455
   25 C2      .XX       0.00000   0.09385   0.00860   0.16001   0.05740
   26 C2      .YY       0.00000   0.17531  -0.00638  -0.22990   0.05139
   27 C2      .ZZ       0.00000   0.12225   0.01991   0.39142   0.06174
   28 C2      .XY       0.00508  -0.00000   0.00000   0.00000  -0.00000
   29 C2      .XZ      -0.00292   0.00000  -0.00000   0.00000   0.00000
   30 C2      .YZ      -0.00000  -0.05341  -0.00481  -0.26188  -0.00803
   31 C3      .S       -0.00000  -0.02404  -0.03165   0.02759  -0.02201
   32 C3      .S        0.00000  -0.00884  -0.73217   0.23575   0.20434
   33 C3      .X       -0.01756   0.00000  -0.00000   0.00000   0.00000
   34 C3      .Y       -0.00000  -0.21707  -0.53073   0.07897  -0.10175
   35 C3      .Z        0.00000  -0.23619   0.44548   0.12207   0.23315
   36 C3      .S        0.00000  -2.18040   3.45203  -0.27958  -4.18709
   37 C3      .X        0.24357   0.00000  -0.00000  -0.00000   0.00000
   38 C3      .Y        0.00000  -0.90077   4.58594  -0.45006  -2.35213
   39 C3      .Z       -0.00000  -1.79980  -3.35349   0.34989   1.46830
   40 C3      .XX      -0.00000  -0.09385   0.16001   0.00860  -0.17723
   41 C3      .YY      -0.00000  -0.17531  -0.22990  -0.00638  -0.14437
   42 C3      .ZZ      -0.00000  -0.12225   0.39142   0.01991  -0.23035
   43 C3      .XY      -0.03111  -0.00000  -0.00000  -0.00000   0.00000
   44 C3      .XZ       0.09399   0.00000   0.00000  -0.00000  -0.00000
   45 C3      .YZ      -0.00000  -0.05341   0.26188   0.00481  -0.02622
   46 C4      .S        0.00000   0.00518   0.01426  -0.00227   0.00527
   47 C4      .S       -0.00000   0.10056   0.02794   0.18981   0.16708
   48 C4      .X        0.05453  -0.00000   0.00000  -0.00000  -0.00000
   49 C4      .Y        0.00000   0.02649  -0.06703  -0.09053   0.21199
   50 C4      .Z       -0.00000   0.04719  -0.04654  -0.21281  -0.03662
   51 C4      .S       -0.00000  -0.38314   1.17895  -4.32052  -3.41754
   52 C4      .X        0.42693   0.00000   0.00000   0.00000   0.00000
   53 C4      .Y        0.00000   1.12220  -0.32666   0.83935   1.56938
   54 C4      .Z        0.00000  -0.04340   0.39269  -2.40502  -2.25461
   55 C4      .XX       0.00000   0.00639   0.03008  -0.11808  -0.09577
   56 C4      .YY       0.00000  -0.00339   0.02972  -0.13821  -0.10221
   57 C4      .ZZ       0.00000  -0.00275   0.03213  -0.11150  -0.08103
   58 C4      .XY      -0.03827   0.00000  -0.00000  -0.00000  -0.00000
   59 C4      .XZ      -0.01180  -0.00000  -0.00000  -0.00000  -0.00000
   60 C4      .YZ      -0.00000   0.00285   0.01276  -0.06369  -0.04453
   61 C5      .S        0.00000  -0.00518  -0.00227   0.01426  -0.04896
   62 C5      .S       -0.00000  -0.10056   0.18981   0.02794  -1.04054
   63 C5      .X        0.82123   0.00000   0.00000   0.00000  -0.00000
   64 C5      .Y       -0.00000   0.02649   0.09053   0.06703  -0.30651
   65 C5      .Z        0.00000  -0.04719  -0.21281  -0.04654  -0.64496
   66 C5      .S       -0.00000   0.38314  -4.32052   1.17895   4.96265
   67 C5      .X       -1.21627  -0.00000   0.00000  -0.00000  -0.00000
   68 C5      .Y        0.00000   1.12220  -0.83935   0.32666   3.12099
   69 C5      .Z       -0.00000   0.04340  -2.40502   0.39269   5.58444
   70 C5      .XX       0.00000  -0.00639  -0.11808   0.03008   0.18950
   71 C5      .YY       0.00000   0.00339  -0.13821   0.02972   0.15798
   72 C5      .ZZ       0.00000   0.00275  -0.11150   0.03213   0.05057
   73 C5      .XY      -0.29767   0.00000  -0.00000  -0.00000  -0.00000
   74 C5      .XZ       0.53544  -0.00000   0.00000  -0.00000   0.00000
   75 C5      .YZ      -0.00000   0.00285   0.06369  -0.01276  -0.36066
   76 H6      .S       -0.00000  -0.00000  -0.18817  -0.18817  -0.02221
   77 H6      .S       -0.00000  -0.00000  -0.14572  -0.14572  -0.01059
   78 H7      .S       -0.00000  -0.18269  -0.08161   0.81066  -0.05889
   79 H7      .S        0.00000  -0.16437  -0.24018   2.17786  -0.00863
   80 H8      .S        0.00000   0.18269   0.81066  -0.08161  -0.16842
   81 H8      .S        0.00000   0.16437   2.17786  -0.24018  -0.73686
   82 H9      .S       -0.00000  -0.06714  -0.02690  -0.12982  -0.23565
   83 H9      .S        0.00000  -0.22614   0.05458  -0.59141  -0.76364
   84 H10     .S       -0.00000   0.06714  -0.12982  -0.02690   0.81141
   85 H10     .S       -0.00000   0.22614  -0.59141   0.05458   2.31323
                          51        52        53        54        55
                           V         V         V         V         V    
     Eigenvalues --    36.93472  38.92440  38.92440  39.43609  45.73255
    1 N1      .S       -0.01488   0.00296   0.00296  -0.12486   0.00000
    2 N1      .S        0.02437   0.02799   0.02799  -1.19909   0.00000
    3 N1      .X        0.00000  -0.00000   0.00000  -0.00000  -0.04068
    4 N1      .Y        0.07688  -0.04291   0.04291  -0.00000  -0.00000
    5 N1      .Z        0.01991  -0.03191  -0.03191  -0.27039  -0.00000
    6 N1      .S        0.93195   0.11320   0.11320   5.02910  -0.00000
    7 N1      .X        0.00000  -0.00000  -0.00000  -0.00000  -0.34929
    8 N1      .Y        0.26087  -0.12379   0.12379   0.00000   0.00000
    9 N1      .Z       -0.26415  -0.16130  -0.16130  -0.04646   0.00000
   10 N1      .XX      -0.03436   0.01350   0.01350   0.17560   0.00000
   11 N1      .YY      -0.01868  -0.00714  -0.00714  -0.25853   0.00000
   12 N1      .ZZ      -0.03800   0.01954   0.01954  -0.94083   0.00000
   13 N1      .XY      -0.00000   0.00000   0.00000   0.00000  -0.08912
   14 N1      .XZ       0.00000   0.00000   0.00000   0.00000   0.04091
   15 N1      .YZ       0.00414   0.00495  -0.00495   0.00000  -0.00000
   16 C2      .S       -0.02201   0.00865   0.01583   0.01596  -0.00000
   17 C2      .S        0.20434  -0.06104   0.25922   0.18520   0.00000
   18 C2      .X        0.00000   0.00000   0.00000   0.00000  -0.47923
   19 C2      .Y        0.10175  -0.00992   0.03713  -0.01628  -0.00000
   20 C2      .Z        0.23315  -0.07061   0.05302  -0.08389   0.00000
   21 C2      .S       -4.18709   0.68109  -2.38771  -1.61464  -0.00000
   22 C2      .X       -0.00000   0.00000  -0.00000   0.00000   0.70297
   23 C2      .Y        2.35213  -0.63973   1.16878   1.07131  -0.00000
   24 C2      .Z        1.46830  -0.06134   1.21308  -0.46337   0.00000
   25 C2      .XX      -0.17723   0.02983  -0.08377  -0.06334  -0.00000
   26 C2      .YY      -0.14437   0.04347  -0.12298   0.05512  -0.00000
   27 C2      .ZZ      -0.23035   0.02636  -0.01050  -0.05563  -0.00000
   28 C2      .XY       0.00000  -0.00000   0.00000   0.00000  -0.09490
   29 C2      .XZ      -0.00000  -0.00000  -0.00000   0.00000   0.94145
   30 C2      .YZ       0.02622   0.01218  -0.03018   0.00048   0.00000
   31 C3      .S        0.01860   0.01583   0.00865   0.01596   0.00000
   32 C3      .S       -0.00359   0.25922  -0.06104   0.18520  -0.00000
   33 C3      .X       -0.00000   0.00000  -0.00000   0.00000  -0.00206
   34 C3      .Y       -0.04568  -0.03713   0.00992   0.01628  -0.00000
   35 C3      .Z       -0.15831   0.05302  -0.07061  -0.08389   0.00000
   36 C3      .S        1.34519  -2.38771   0.68109  -1.61464   0.00000
   37 C3      .X        0.00000   0.00000  -0.00000   0.00000   0.10829
   38 C3      .Y        0.26032  -1.16878   0.63973  -1.07131   0.00000
   39 C3      .Z       -0.35455   1.21308  -0.06134  -0.46337  -0.00000
   40 C3      .XX       0.05740  -0.08377   0.02983  -0.06334   0.00000
   41 C3      .YY       0.05139  -0.12298   0.04347   0.05512   0.00000
   42 C3      .ZZ       0.06174  -0.01050   0.02636  -0.05563   0.00000
   43 C3      .XY      -0.00000  -0.00000  -0.00000   0.00000   0.00612
   44 C3      .XZ      -0.00000   0.00000   0.00000   0.00000  -0.00684
   45 C3      .YZ       0.00803   0.03018  -0.01218  -0.00048   0.00000
   46 C4      .S       -0.04896   0.02879  -0.01075  -0.00807  -0.00000
   47 C4      .S       -1.04054   0.26087  -2.38808  -0.07712  -0.00000
   48 C4      .X        0.00000  -0.00000   0.00000   0.00000   0.06024
   49 C4      .Y        0.30651   0.15700  -0.09741   0.06385  -0.00000
   50 C4      .Z       -0.64496  -0.01169   0.16484   0.00208   0.00000
   51 C4      .S        4.96265  -2.85913   6.67139   0.15934   0.00000
   52 C4      .X       -0.00000   0.00000  -0.00000  -0.00000  -0.04283
   53 C4      .Y       -3.12099   1.82402  -1.16874  -0.43453  -0.00000
   54 C4      .Z        5.58444  -0.75222   1.04943   0.41459   0.00000
   55 C4      .XX       0.18950  -0.06016   0.22062  -0.01893  -0.00000
   56 C4      .YY       0.15798  -0.10235   0.35477  -0.00282   0.00000
   57 C4      .ZZ       0.05057  -0.07743   0.31673  -0.01952  -0.00000
   58 C4      .XY      -0.00000   0.00000   0.00000  -0.00000   0.04649
   59 C4      .XZ       0.00000  -0.00000   0.00000  -0.00000   0.13253
   60 C4      .YZ       0.36066   0.06123  -0.50514   0.00570   0.00000
   61 C5      .S        0.00527  -0.01075   0.02879  -0.00807  -0.00000
   62 C5      .S        0.16708  -2.38808   0.26087  -0.07712   0.00000
   63 C5      .X        0.00000  -0.00000   0.00000   0.00000   0.02136
   64 C5      .Y       -0.21199   0.09741  -0.15700  -0.06385  -0.00000
   65 C5      .Z       -0.03662   0.16484  -0.01169   0.00208   0.00000
   66 C5      .S       -3.41754   6.67139  -2.85913   0.15934  -0.00000
   67 C5      .X        0.00000  -0.00000   0.00000  -0.00000  -0.07023
   68 C5      .Y       -1.56938   1.16874  -1.82402   0.43453  -0.00000
   69 C5      .Z       -2.25461   1.04943  -0.75222   0.41459  -0.00000
   70 C5      .XX      -0.09577   0.22062  -0.06016  -0.01893  -0.00000
   71 C5      .YY      -0.10221   0.35477  -0.10235  -0.00282  -0.00000
   72 C5      .ZZ      -0.08103   0.31673  -0.07743  -0.01952  -0.00000
   73 C5      .XY      -0.00000   0.00000  -0.00000   0.00000  -0.00458
   74 C5      .XZ       0.00000  -0.00000  -0.00000  -0.00000  -0.00790
   75 C5      .YZ       0.04453   0.50514  -0.06123  -0.00570   0.00000
   76 H6      .S       -0.02221   0.01402   0.01402  -0.04013  -0.00000
   77 H6      .S       -0.01059  -0.01282  -0.01282  -0.77138  -0.00000
   78 H7      .S       -0.16842   0.02693  -0.04886  -0.00522  -0.00000
   79 H7      .S       -0.73686   0.15538  -0.43133  -0.10748  -0.00000
   80 H8      .S       -0.05889  -0.04886   0.02693  -0.00522  -0.00000
   81 H8      .S       -0.00863  -0.43133   0.15538  -0.10748   0.00000
   82 H9      .S        0.81141  -0.02932  -0.41843   0.06869   0.00000
   83 H9      .S        2.31323  -0.46484  -0.39583   0.22085   0.00000
   84 H10     .S       -0.23565  -0.41843  -0.02932   0.06869  -0.00000
   85 H10     .S       -0.76364  -0.39583  -0.46484   0.22085  -0.00000
                          56        57        58        59        60
                           V         V         V         V         V    
     Eigenvalues --    45.73255  46.78295  46.78295  47.94112  49.70561
    1 N1      .S        0.00000   0.00000  -0.00000   0.00000  -0.00000
    2 N1      .S        0.00000   0.00000  -0.00000   0.00000  -0.00000
    3 N1      .X       -0.04068   0.01488  -0.01488   0.40322   0.00881
    4 N1      .Y       -0.00000   0.00000  -0.00000   0.00000   0.00000
    5 N1      .Z       -0.00000  -0.00000  -0.00000  -0.00000   0.00000
    6 N1      .S       -0.00000  -0.00000   0.00000  -0.00000   0.00000
    7 N1      .X       -0.34929  -0.11523   0.11523  -0.78328   0.05710
    8 N1      .Y        0.00000   0.00000   0.00000  -0.00000   0.00000
    9 N1      .Z       -0.00000   0.00000   0.00000   0.00000  -0.00000
   10 N1      .XX       0.00000   0.00000   0.00000   0.00000  -0.00000
   11 N1      .YY       0.00000  -0.00000  -0.00000   0.00000  -0.00000
   12 N1      .ZZ       0.00000   0.00000  -0.00000   0.00000   0.00000
   13 N1      .XY       0.08912  -0.00546  -0.00546   0.00000   0.00899
   14 N1      .XZ       0.04091   0.00625  -0.00625   0.97774  -0.00774
   15 N1      .YZ      -0.00000  -0.00000   0.00000  -0.00000  -0.00000
   16 C2      .S       -0.00000   0.00000   0.00000   0.00000  -0.00000
   17 C2      .S        0.00000   0.00000  -0.00000  -0.00000   0.00000
   18 C2      .X       -0.00206  -0.01523  -0.07639   0.08094  -0.07654
   19 C2      .Y        0.00000   0.00000  -0.00000  -0.00000   0.00000
   20 C2      .Z        0.00000  -0.00000  -0.00000   0.00000  -0.00000
   21 C2      .S       -0.00000   0.00000  -0.00000   0.00000  -0.00000
   22 C2      .X        0.10829   0.06719  -0.32783   0.32797  -0.34399
   23 C2      .Y       -0.00000  -0.00000   0.00000  -0.00000   0.00000
   24 C2      .Z       -0.00000  -0.00000  -0.00000  -0.00000  -0.00000
   25 C2      .XX       0.00000  -0.00000   0.00000   0.00000  -0.00000
   26 C2      .YY      -0.00000  -0.00000   0.00000   0.00000  -0.00000
   27 C2      .ZZ      -0.00000  -0.00000   0.00000   0.00000   0.00000
   28 C2      .XY      -0.00612  -0.01021   0.00958  -0.10367   0.06403
   29 C2      .XZ      -0.00684  -0.00219   0.09369   0.03438   0.10347
   30 C2      .YZ       0.00000   0.00000  -0.00000  -0.00000   0.00000
   31 C3      .S       -0.00000   0.00000  -0.00000   0.00000  -0.00000
   32 C3      .S        0.00000   0.00000   0.00000  -0.00000  -0.00000
   33 C3      .X       -0.47923   0.07639   0.01523   0.08094   0.01779
   34 C3      .Y       -0.00000   0.00000   0.00000   0.00000  -0.00000
   35 C3      .Z        0.00000   0.00000   0.00000   0.00000  -0.00000
   36 C3      .S       -0.00000   0.00000   0.00000   0.00000   0.00000
   37 C3      .X        0.70297   0.32783  -0.06719   0.32797   0.03871
   38 C3      .Y        0.00000   0.00000   0.00000   0.00000   0.00000
   39 C3      .Z        0.00000   0.00000  -0.00000   0.00000  -0.00000
   40 C3      .XX      -0.00000   0.00000   0.00000  -0.00000  -0.00000
   41 C3      .YY      -0.00000  -0.00000  -0.00000   0.00000   0.00000
   42 C3      .ZZ      -0.00000   0.00000  -0.00000   0.00000   0.00000
   43 C3      .XY       0.09490   0.00958  -0.01021   0.10367   0.00261
   44 C3      .XZ       0.94145  -0.09369   0.00219   0.03438  -0.01046
   45 C3      .YZ       0.00000   0.00000  -0.00000   0.00000  -0.00000
   46 C4      .S       -0.00000   0.00000  -0.00000   0.00000   0.00000
   47 C4      .S        0.00000  -0.00000  -0.00000   0.00000  -0.00000
   48 C4      .X        0.02136  -0.04293  -0.46389  -0.02132  -0.36835
   49 C4      .Y        0.00000  -0.00000   0.00000   0.00000  -0.00000
   50 C4      .Z        0.00000  -0.00000  -0.00000   0.00000  -0.00000
   51 C4      .S       -0.00000   0.00000   0.00000  -0.00000   0.00000
   52 C4      .X       -0.07023   0.00434   0.67104  -0.05333   0.75118
   53 C4      .Y       -0.00000  -0.00000  -0.00000   0.00000  -0.00000
   54 C4      .Z       -0.00000   0.00000   0.00000  -0.00000   0.00000
   55 C4      .XX       0.00000  -0.00000  -0.00000   0.00000   0.00000
   56 C4      .YY       0.00000   0.00000  -0.00000  -0.00000   0.00000
   57 C4      .ZZ       0.00000   0.00000   0.00000   0.00000  -0.00000
   58 C4      .XY       0.00458   0.12592   0.88396  -0.00283  -0.50733
   59 C4      .XZ      -0.00790   0.00145   0.34448  -0.01059   0.85583
   60 C4      .YZ      -0.00000   0.00000  -0.00000   0.00000  -0.00000
   61 C5      .S        0.00000  -0.00000   0.00000  -0.00000   0.00000
   62 C5      .S        0.00000   0.00000  -0.00000   0.00000   0.00000
   63 C5      .X        0.06024   0.46389   0.04293  -0.02132  -0.04617
   64 C5      .Y       -0.00000   0.00000   0.00000   0.00000  -0.00000
   65 C5      .Z       -0.00000   0.00000  -0.00000  -0.00000  -0.00000
   66 C5      .S       -0.00000  -0.00000  -0.00000   0.00000  -0.00000
   67 C5      .X       -0.04283  -0.67104  -0.00434  -0.05333  -0.30922
   68 C5      .Y       -0.00000  -0.00000  -0.00000   0.00000  -0.00000
   69 C5      .Z        0.00000  -0.00000  -0.00000   0.00000  -0.00000
[...]
   73 C5      .XY       0.00000   0.00000   0.00000  -0.00000  -0.00000
   74 C5      .XZ       0.00000  -0.00000   0.00000  -0.00000   0.00000
   75 C5      .YZ       0.02327   0.08774  -0.73009  -0.02515   0.01350
   76 H6      .S       -0.36693   0.08192   0.08192  -0.21147  -0.05577
   77 H6      .S        0.45434   0.12900   0.12900  -0.06457  -0.05504
   78 H7      .S       -0.10145   0.02166   0.00858   0.05347   0.14216
   79 H7      .S       -0.64251  -0.02557  -0.07082  -0.08669   0.12814
   80 H8      .S       -0.10145   0.00858   0.02166   0.05347  -0.02536
   81 H8      .S       -0.64251  -0.07082  -0.02557  -0.08669   0.03634
   82 H9      .S       -0.00025   0.19272   0.02893   0.03279  -0.04392
   83 H9      .S        0.04569  -1.01238   0.35320  -0.00057   0.02668
   84 H10     .S       -0.00025   0.02893   0.19272   0.03279  -0.03958
   85 H10     .S        0.04569   0.35320  -1.01238  -0.00057  -0.08708
                          71        72        73        74        75
                           V         V         V         V         V    
     Eigenvalues --    64.76432  64.86133  64.86133  66.09836  67.72046
    1 N1      .S       -0.01316   0.00477   0.00477  -0.00000   0.02231
    2 N1      .S       -0.05457   0.01909   0.01909  -0.00000   0.08232
    3 N1      .X       -0.00000   0.00000  -0.00000  -0.00000   0.00000
    4 N1      .Y       -0.15479   0.03002  -0.03002  -0.28670   0.20337
    5 N1      .Z       -0.08435  -0.00613  -0.00613   0.00000   0.14947
    6 N1      .S        0.68261   0.00208   0.00208   0.00000  -1.24177
    7 N1      .X       -0.00000   0.00000   0.00000  -0.00000   0.00000
    8 N1      .Y       -0.78841   0.17595  -0.17595  -0.95453   0.76610
    9 N1      .Z       -0.10197  -0.06273  -0.06273   0.00000   0.66306
   10 N1      .XX      -0.02786   0.01434   0.01434   0.00000   0.02413
   11 N1      .YY       0.21653   0.02732   0.02732   0.00000  -0.18450
   12 N1      .ZZ       0.00075  -0.01593  -0.01593  -0.00000  -0.09634
   13 N1      .XY       0.00000   0.00000  -0.00000   0.00000   0.00000
   14 N1      .XZ       0.00000   0.00000   0.00000   0.00000  -0.00000
   15 N1      .YZ       0.09263  -0.01455   0.01455   1.37653  -0.21371
   16 C2      .S       -0.00726   0.00622   0.00111   0.00990  -0.00018
   17 C2      .S       -0.05425   0.17270  -0.02577  -0.00849  -0.02545
   18 C2      .X        0.00000   0.00000   0.00000  -0.00000   0.00000
   19 C2      .Y        0.00930   0.00282   0.01709  -0.37636  -0.04163
   20 C2      .Z       -0.02058   0.29480  -0.06029   0.18446   0.00878
   21 C2      .S        0.60416  -2.28894   0.65001   1.17369   0.31219
   22 C2      .X        0.00000  -0.00000   0.00000   0.00000  -0.00000
   23 C2      .Y       -0.27391   0.86392  -0.59625  -0.91042  -0.29663
   24 C2      .Z        0.14007   0.97340  -0.06925  -0.07940  -0.41582
   25 C2      .XX      -0.01247  -0.02174   0.00920   0.04350   0.01648
   26 C2      .YY       0.01183  -0.04294  -0.00003   0.32907   0.03070
   27 C2      .ZZ      -0.01533  -0.26154   0.02688   0.14219   0.02090
   28 C2      .XY      -0.00000   0.00000   0.00000  -0.00000   0.00000
   29 C2      .XZ      -0.00000  -0.00000   0.00000  -0.00000   0.00000
   30 C2      .YZ       0.01401   0.01565  -0.01068  -0.18762   0.00891
   31 C3      .S       -0.03495   0.00111   0.00622  -0.00990  -0.10388
   32 C3      .S        1.14431  -0.02577   0.17270   0.00849   0.41739
   33 C3      .X        0.00000  -0.00000   0.00000   0.00000  -0.00000
   34 C3      .Y       -0.26487  -0.01709  -0.00282  -0.37636   0.22821
   35 C3      .Z        0.15636  -0.06029   0.29480  -0.18446   0.33324
   36 C3      .S       -2.55878   0.65001  -2.28894  -1.17369   1.53399
   37 C3      .X        0.00000  -0.00000   0.00000   0.00000  -0.00000
   38 C3      .Y       -0.46261   0.59625  -0.86392  -0.91042   0.37357
   39 C3      .Z        0.19148  -0.06925   0.97340   0.07940   0.81672
   40 C3      .XX       0.54007   0.00920  -0.02174  -0.04350  -0.49669
   41 C3      .YY      -0.27398  -0.00003  -0.04294  -0.32907   0.24543
   42 C3      .ZZ      -1.48045   0.02688  -0.26154  -0.14219  -0.90216
   43 C3      .XY       0.00000  -0.00000  -0.00000  -0.00000  -0.00000
   44 C3      .XZ       0.00000  -0.00000   0.00000   0.00000   0.00000
   45 C3      .YZ      -0.26456   0.01068  -0.01565  -0.18762   1.13083
   46 C4      .S       -0.00016  -0.17678   0.01905   0.01437   0.00281
   47 C4      .S        0.01090  -0.31128   0.22791   0.12227   0.03528
   48 C4      .X       -0.00000   0.00000  -0.00000  -0.00000  -0.00000
   49 C4      .Y        0.01298  -0.10363   0.31943  -0.00527   0.01664
   50 C4      .Z        0.00342   0.15698   0.06071  -0.03049  -0.02442
   51 C4      .S       -0.15617   5.16243  -2.63949  -1.40784  -0.44073
   52 C4      .X       -0.00000   0.00000   0.00000  -0.00000   0.00000
   53 C4      .Y        0.15070  -1.26725   1.49547   0.76793  -0.01544
   54 C4      .Z       -0.25981   1.41298  -0.60552  -0.69559  -0.30629
   55 C4      .XX      -0.00534  -1.28421  -0.01459   0.00009  -0.01282
   56 C4      .YY      -0.02082   0.43288  -0.29197  -0.03381  -0.01756
   57 C4      .ZZ      -0.00227  -0.12464  -0.05740  -0.03328  -0.02655
   58 C4      .XY      -0.00000   0.00000  -0.00000  -0.00000   0.00000
   59 C4      .XZ       0.00000   0.00000   0.00000   0.00000   0.00000
   60 C4      .YZ      -0.01350   0.58070  -0.05976   0.00922   0.01217
   61 C5      .S        0.00058   0.01905  -0.17678  -0.01437   0.01563
   62 C5      .S       -0.03770   0.22791  -0.31128  -0.12227   0.08016
   63 C5      .X       -0.00000   0.00000  -0.00000   0.00000   0.00000
   64 C5      .Y       -0.19040  -0.31943   0.10363  -0.00527  -0.04356
   65 C5      .Z        0.40722   0.06071   0.15698   0.03049   0.41055
   66 C5      .S        1.18909  -2.63949   5.16243   1.40784   0.02258
   67 C5      .X       -0.00000   0.00000  -0.00000  -0.00000   0.00000
   68 C5      .Y       -0.15302  -1.49547   1.26725   0.76793  -0.00047
   69 C5      .Z        0.62718  -0.60552   1.41298   0.69559   0.21326
   70 C5      .XX       0.02884  -0.01459  -1.28421  -0.00009   0.05721
   71 C5      .YY       0.13222  -0.29197   0.43288   0.03381   0.04017
   72 C5      .ZZ       0.30855  -0.05740  -0.12464   0.03328   0.39080
   73 C5      .XY       0.00000  -0.00000   0.00000   0.00000  -0.00000
   74 C5      .XZ       0.00000  -0.00000   0.00000  -0.00000   0.00000
   75 C5      .YZ      -0.16676   0.05976  -0.58070   0.00922  -0.05699
   76 H6      .S       -0.05577   0.02688   0.02688  -0.00000   0.02593
   77 H6      .S       -0.05504  -0.03415  -0.03415  -0.00000  -0.24632
   78 H7      .S       -0.02536   0.00366   0.04008   0.01805   0.03459
   79 H7      .S        0.03634  -0.22717   0.15649   0.30823   0.16172
   80 H8      .S        0.14216   0.04008   0.00366  -0.01805   0.07236
   81 H8      .S        0.12814   0.15649  -0.22717  -0.30823  -0.32867
   82 H9      .S       -0.03958  -0.01125   0.00629  -0.04152  -0.00332
   83 H9      .S       -0.08708   0.11485  -0.29088  -0.29200  -0.05668
   84 H10     .S       -0.04392   0.00629  -0.01125   0.04152  -0.00536
   85 H10     .S        0.02668  -0.29088   0.11485   0.29200   0.16834
                          76        77        78        79        80
                           V         V         V         V         V    
     Eigenvalues --    67.72046  72.83533  72.83533  76.57335  76.57335
    1 N1      .S        0.02231   0.05613   0.05613   0.00325   0.00325
    2 N1      .S        0.08232   0.22325   0.22325   0.00913   0.00913
    3 N1      .X       -0.00000   0.00000   0.00000   0.00000  -0.00000
    4 N1      .Y       -0.20337  -0.01892   0.01892  -0.01527   0.01527
    5 N1      .Z        0.14947  -0.04119  -0.04119   0.03942   0.03942
    6 N1      .S       -1.24177  -2.45346  -2.45346  -0.29833  -0.29833
    7 N1      .X       -0.00000   0.00000  -0.00000   0.00000   0.00000
    8 N1      .Y       -0.76610   0.29263  -0.29263   0.13057  -0.13057
    9 N1      .Z        0.66306   1.33263   1.33263   0.12368   0.12368
   10 N1      .XX       0.02413   0.14856   0.14856  -0.00821  -0.00821
   11 N1      .YY      -0.18450   0.19257   0.19257  -0.00384  -0.00384
   12 N1      .ZZ      -0.09634   0.03707   0.03707  -0.03218  -0.03218
   13 N1      .XY      -0.00000   0.00000   0.00000   0.00000   0.00000
   14 N1      .XZ       0.00000  -0.00000   0.00000  -0.00000   0.00000
   15 N1      .YZ       0.21371  -0.01208   0.01208   0.00693  -0.00693
   16 C2      .S       -0.10388   0.02925  -0.30517   0.01637  -0.00580
   17 C2      .S        0.41739   0.16702   1.35656   0.05750  -0.04814
   18 C2      .X        0.00000  -0.00000   0.00000  -0.00000  -0.00000
   19 C2      .Y       -0.22821  -0.12365   0.30054  -0.23756   0.01248
   20 C2      .Z        0.33324   0.07149   0.07810  -0.49233   0.01438
   21 C2      .S        1.53399  -0.22748   4.36750   0.52476   0.26256
   22 C2      .X        0.00000  -0.00000  -0.00000  -0.00000   0.00000
   23 C2      .Y       -0.37357   0.27532  -3.39720  -0.21433  -0.48107
   24 C2      .Z        0.81672   0.30105  -1.43243  -0.41790  -0.02944
   25 C2      .XX      -0.49669   0.04640  -1.65957   0.06015  -0.00705
   26 C2      .YY       0.24543   0.04993  -0.24520   0.15817   0.01038
   27 C2      .ZZ      -0.90216   0.00490  -0.97790   0.41798   0.00278
   28 C2      .XY      -0.00000   0.00000  -0.00000  -0.00000  -0.00000
   29 C2      .XZ      -0.00000  -0.00000  -0.00000   0.00000  -0.00000
   30 C2      .YZ      -1.13083   0.00304   0.45602   0.19954  -0.00563
   31 C3      .S       -0.00018  -0.30517   0.02925  -0.00580   0.01637
   32 C3      .S       -0.02545   1.35656   0.16702  -0.04814   0.05750
   33 C3      .X       -0.00000  -0.00000   0.00000  -0.00000  -0.00000
   34 C3      .Y        0.04163  -0.30054   0.12365  -0.01248   0.23756
   35 C3      .Z        0.00878   0.07810   0.07149   0.01438  -0.49233
   36 C3      .S        0.31219   4.36750  -0.22748   0.26256   0.52476
   37 C3      .X       -0.00000  -0.00000  -0.00000  -0.00000   0.00000
   38 C3      .Y        0.29663   3.39720  -0.27532   0.48107   0.21433
   39 C3      .Z       -0.41582  -1.43243   0.30105  -0.02944  -0.41790
   40 C3      .XX       0.01648  -1.65957   0.04640  -0.00705   0.06015
   41 C3      .YY       0.03070  -0.24520   0.04993   0.01038   0.15817
   42 C3      .ZZ       0.02090  -0.97790   0.00490   0.00278   0.41798
   43 C3      .XY       0.00000  -0.00000  -0.00000  -0.00000   0.00000
   44 C3      .XZ       0.00000   0.00000   0.00000  -0.00000   0.00000
   45 C3      .YZ      -0.00891  -0.45602  -0.00304   0.00563  -0.19954
   46 C4      .S        0.01563   0.00492   0.02104  -0.19072   0.00628
   47 C4      .S        0.08016  -0.02131   0.27807   1.28657   0.08544
   48 C4      .X       -0.00000   0.00000  -0.00000   0.00000   0.00000
   49 C4      .Y        0.04356  -0.11684   0.02310  -0.20591   0.13318
   50 C4      .Z        0.41055  -0.00927  -0.07419  -0.13955   0.00081
   51 C4      .S        0.02258   1.56676  -3.65681   0.72782  -0.95688
   52 C4      .X       -0.00000  -0.00000   0.00000   0.00000   0.00000
   53 C4      .Y        0.00047  -0.56015   1.27174  -0.52801   0.61227
   54 C4      .Z        0.21326   0.50025  -2.18052  -0.98079   0.06822
   55 C4      .XX       0.05721   0.03568   0.02544  -0.36089  -0.01943
   56 C4      .YY       0.04017   0.04659   0.00545  -0.13615  -0.15518
   57 C4      .ZZ       0.39080   0.03434  -0.10241  -2.04492   0.01320
   58 C4      .XY      -0.00000   0.00000   0.00000   0.00000   0.00000
   59 C4      .XZ       0.00000  -0.00000  -0.00000  -0.00000  -0.00000
   60 C4      .YZ       0.05699  -0.01807   0.07358  -0.09678  -0.00849
   61 C5      .S        0.00281   0.02104   0.00492   0.00628  -0.19072
   62 C5      .S        0.03528   0.27807  -0.02131   0.08544   1.28657
   63 C5      .X        0.00000   0.00000  -0.00000   0.00000   0.00000
   64 C5      .Y       -0.01664  -0.02310   0.11684  -0.13318   0.20591
   65 C5      .Z       -0.02442  -0.07419  -0.00927   0.00081  -0.13955
   66 C5      .S       -0.44073  -3.65681   1.56676  -0.95688   0.72782
   67 C5      .X        0.00000   0.00000   0.00000  -0.00000  -0.00000
   68 C5      .Y        0.01544  -1.27174   0.56015  -0.61227   0.52801
   69 C5      .Z       -0.30629  -2.18052   0.50025   0.06822  -0.98079
   70 C5      .XX      -0.01282   0.02544   0.03568  -0.01943  -0.36089
   71 C5      .YY      -0.01756   0.00545   0.04659  -0.15518  -0.13615
   72 C5      .ZZ      -0.02655  -0.10241   0.03434   0.01320  -2.04492
   73 C5      .XY       0.00000   0.00000  -0.00000  -0.00000   0.00000
   74 C5      .XZ      -0.00000   0.00000   0.00000  -0.00000  -0.00000
   75 C5      .YZ      -0.01217  -0.07358   0.01807   0.00849   0.09678
   76 H6      .S        0.02593  -0.07241  -0.07241   0.00110   0.00110
   77 H6      .S       -0.24632  -0.31634  -0.31634   0.00520   0.00520
   78 H7      .S        0.07236  -0.04305  -0.04658  -0.02983   0.03740
   79 H7      .S       -0.32867  -0.16677   1.19529   0.19176   0.17839
   80 H8      .S        0.03459  -0.04658  -0.04305   0.03740  -0.02983
   81 H8      .S        0.16172   1.19529  -0.16677   0.17839   0.19176
   82 H9      .S       -0.00536  -0.00322  -0.07953   0.21982   0.02934
   83 H9      .S        0.16834   0.11974  -0.75253  -0.49214  -0.06707
   84 H10     .S       -0.00332  -0.07953  -0.00322   0.02934   0.21982
   85 H10     .S       -0.05668  -0.75253   0.11974  -0.06707  -0.49214
                          81        82        83        84        85
                           V         V         V         V         V    
     Eigenvalues --    94.17544  94.17544  95.99169  95.99169 106.81712
    1 N1      .S       -0.00928  -0.00928  -0.01057  -0.01057  -0.52118
    2 N1      .S       -0.00056  -0.00056   0.00703   0.00703   0.82205
    3 N1      .X       -0.00000   0.00000  -0.00000   0.00000   0.00000
    4 N1      .Y       -0.04653   0.04653   0.14097  -0.14097   0.00000
    5 N1      .Z       -0.01769  -0.01769  -0.12166  -0.12166   0.17384
    6 N1      .S        0.68538   0.68538   0.46643   0.46643   4.99436
    7 N1      .X        0.00000  -0.00000   0.00000  -0.00000  -0.00000
    8 N1      .Y       -0.23670   0.23670  -0.06423   0.06423  -0.00000
    9 N1      .Z       -0.22802  -0.22802  -0.75678  -0.75678  -0.92034
   10 N1      .XX      -0.00507  -0.00507  -0.01265  -0.01265  -1.67892
   11 N1      .YY      -0.03335  -0.03335   0.09338   0.09338  -1.81256
   12 N1      .ZZ      -0.00844  -0.00844   0.17698   0.17698  -1.49007
   13 N1      .XY      -0.00000   0.00000  -0.00000   0.00000   0.00000
   14 N1      .XZ      -0.00000  -0.00000   0.00000  -0.00000   0.00000
   15 N1      .YZ       0.01140  -0.01140  -0.12390   0.12390   0.00000
   16 C2      .S        0.00462   0.00943  -0.37324  -0.00408  -0.00736
   17 C2      .S       -0.03039   0.25949   2.41269   0.04808   0.06521
   18 C2      .X        0.00000   0.00000  -0.00000   0.00000  -0.00000
   19 C2      .Y        0.00685   0.02617  -0.05897   0.06092  -0.08922
   20 C2      .Z       -0.08789  -0.07748  -0.12404  -0.00489   0.08936
   21 C2      .S        1.12716  -2.98000   1.68562  -0.97543  -1.41314
   22 C2      .X       -0.00000  -0.00000   0.00000  -0.00000   0.00000
   23 C2      .Y       -0.43226   1.72045   0.88279   0.52417   0.75674
   24 C2      .Z       -0.30003   1.08898  -0.18429   0.31344  -0.11851
   25 C2      .XX       0.02701   0.00155  -1.17957  -0.02119  -0.01179
   26 C2      .YY       0.01983  -0.07854  -2.25912  -0.07113   0.09552
   27 C2      .ZZ       0.01466   0.06875  -1.16416  -0.02675   0.07407
   28 C2      .XY       0.00000   0.00000   0.00000   0.00000  -0.00000
   29 C2      .XZ      -0.00000   0.00000  -0.00000   0.00000  -0.00000
   30 C2      .YZ       0.00939  -0.06028  -0.09694  -0.00465  -0.11255
   31 C3      .S        0.00943   0.00462  -0.00408  -0.37324  -0.00736
   32 C3      .S        0.25949  -0.03039   0.04808   2.41269   0.06521
   33 C3      .X        0.00000  -0.00000   0.00000   0.00000   0.00000
   34 C3      .Y       -0.02617  -0.00685  -0.06092   0.05897   0.08922
   35 C3      .Z       -0.07748  -0.08789  -0.00489  -0.12404   0.08936
   36 C3      .S       -2.98000   1.12716  -0.97543   1.68562  -1.41314
   37 C3      .X       -0.00000   0.00000  -0.00000  -0.00000   0.00000
   38 C3      .Y       -1.72045   0.43226  -0.52417  -0.88279  -0.75674
   39 C3      .Z        1.08898  -0.30003   0.31344  -0.18429  -0.11851
   40 C3      .XX       0.00155   0.02701  -0.02119  -1.17957  -0.01179
   41 C3      .YY      -0.07854   0.01983  -0.07113  -2.25912   0.09552
   42 C3      .ZZ       0.06875   0.01466  -0.02675  -1.16416   0.07407
   43 C3      .XY      -0.00000  -0.00000  -0.00000  -0.00000  -0.00000
   44 C3      .XZ       0.00000   0.00000   0.00000  -0.00000   0.00000
   45 C3      .YZ       0.06028  -0.00939   0.00465   0.09694   0.11255
   46 C4      .S        0.02062  -0.42569   0.01859  -0.01492   0.00828
   47 C4      .S        0.21942   2.06974   0.15062  -0.09048   0.04503
   48 C4      .X       -0.00000   0.00000   0.00000  -0.00000   0.00000
   49 C4      .Y       -0.16976   0.21297  -0.01283   0.04869   0.01798
   50 C4      .Z       -0.01560  -0.22687   0.15267  -0.02843   0.03399
   51 C4      .S       -2.77301   4.89508  -1.12126   0.80810   0.29677
   52 C4      .X        0.00000  -0.00000  -0.00000   0.00000  -0.00000
   53 C4      .Y        1.28690  -1.60951  -0.24100  -0.30092  -0.00511
   54 C4      .Z       -1.41705   2.57248  -0.54054   0.77220   0.06119
   55 C4      .XX       0.04215  -1.72384   0.04321  -0.02566   0.01700
   56 C4      .YY       0.18097  -1.71813   0.03170  -0.02821  -0.00251
   57 C4      .ZZ       0.00231  -1.03917   0.11235  -0.01188  -0.01429
   58 C4      .XY       0.00000  -0.00000   0.00000  -0.00000   0.00000
   59 C4      .XZ      -0.00000   0.00000  -0.00000   0.00000   0.00000
   60 C4      .YZ       0.07151  -0.51913  -0.05416   0.02003   0.00442
   61 C5      .S       -0.42569   0.02062  -0.01492   0.01859   0.00828
   62 C5      .S        2.06974   0.21942  -0.09048   0.15062   0.04503
   63 C5      .X       -0.00000   0.00000   0.00000  -0.00000  -0.00000
   64 C5      .Y       -0.21297   0.16976  -0.04869   0.01283  -0.01798
   65 C5      .Z       -0.22687  -0.01560  -0.02843   0.15267   0.03399
   66 C5      .S        4.89508  -2.77301   0.80810  -1.12126   0.29677
   67 C5      .X       -0.00000   0.00000  -0.00000   0.00000   0.00000
   68 C5      .Y        1.60951  -1.28690   0.30092   0.24100   0.00511
   69 C5      .Z        2.57248  -1.41705   0.77220  -0.54054   0.06119
   70 C5      .XX      -1.72384   0.04215  -0.02566   0.04321   0.01700
   71 C5      .YY      -1.71813   0.18097  -0.02821   0.03170  -0.00251
   72 C5      .ZZ      -1.03917   0.00231  -0.01188   0.11235  -0.01429
   73 C5      .XY      -0.00000   0.00000  -0.00000  -0.00000   0.00000
   74 C5      .XZ       0.00000   0.00000   0.00000  -0.00000   0.00000
   75 C5      .YZ       0.51913  -0.07151  -0.02003   0.05416  -0.00442
   76 H6      .S       -0.00441  -0.00441   0.06358   0.06358   0.15811
   77 H6      .S       -0.00810  -0.00810   0.32510   0.32510  -0.40260
   78 H7      .S       -0.00676  -0.04602   0.30206  -0.00140   0.00409
   79 H7      .S        0.07658  -0.61694  -0.85792  -0.16571  -0.10901
   80 H8      .S       -0.04602  -0.00676  -0.00140   0.30206   0.00409
   81 H8      .S       -0.61694   0.07658  -0.16571  -0.85792  -0.10901
   82 H9      .S       -0.06740   0.03856   0.03448   0.05729  -0.00568
   83 H9      .S       -0.56234   0.69261   0.00565   0.27020  -0.05841
   84 H10     .S        0.03856  -0.06740   0.05729   0.03448  -0.00568
   85 H10     .S        0.69261  -0.56234   0.27020   0.00565  -0.05841
