 Entering Gaussian System

 Standard orientation:



 -------------------------------------------------------
     1   7    0     0.000000     0.000000     1.118353
     2   6    0     0.000000     1.120226     0.329679
     3   6    0     0.000000    -1.120226     0.329679
     4   6    0     0.000000     0.710949    -0.979191
     5   6    0     0.000000    -0.710949    -0.979191
     6   1    0     0.000000     0.000000     2.125150
     7   1    0     0.000000     2.108650     0.764533
     8   1    0     0.000000    -2.108650     0.764533
     9   1    0     0.000000     1.358901    -1.844271
    10   1    0     0.000000    -1.358901    -1.844271
 -------------------------------------------------------

 AO basis set (Overlap normalization):
 Atom  N1     Shell     1 S    6
   4.1735114600e+03   1.8347721600e-03
   6.2745791100e+02   1.3994627000e-02
   1.4290209300e+02   6.8586551810e-02
   4.0234329300e+01   2.3224087300e-01
   1.2820212900e+01   4.6906994810e-01
   4.3904370100e+00   3.6045519910e-01
 Atom  N1     Shell     2 SP   3
   1.1626361860e+01  -1.1496118170e-01   6.7579743880e-02
   2.7162798070e+00  -1.6911747860e-01   3.2390729590e-01
   7.7221839660e-01   1.1458519470e+00   7.4089513980e-01
 Atom  N1     Shell     3 SP   1
   2.1203149750e-01   1.0000000000e+00   1.0000000000e+00
 Atom  N1     Shell     4 D    1
   8.0000000000e-01   1.0000000000e+00
 Atom  C2     Shell     5 S    6
   3.0475248800e+03   1.8347371320e-03
   4.5736951800e+02   1.4037322810e-02
   1.0394868500e+02   6.8842622260e-02
   2.9210155300e+01   2.3218444320e-01
   9.2866629600e+00   4.6794134840e-01
   3.1639269600e+00   3.6231198530e-01
 Atom  C2     Shell     6 SP   3
   7.8682723500e+00  -1.1933241980e-01   6.8999066590e-02
   1.8812885400e+00  -1.6085415170e-01   3.1642396100e-01
   5.4424925800e-01   1.1434564380e+00   7.4430829090e-01
 Atom  C2     Shell     7 SP   1
   1.6871447820e-01   1.0000000000e+00   1.0000000000e+00
 Atom  C2     Shell     8 D    1
   8.0000000000e-01   1.0000000000e+00
 Atom  C3     Shell     9 S    6
   3.0475248800e+03   1.8347371320e-03
   4.5736951800e+02   1.4037322810e-02
   1.0394868500e+02   6.8842622260e-02
   2.9210155300e+01   2.3218444320e-01
   9.2866629600e+00   4.6794134840e-01
   3.1639269600e+00   3.6231198530e-01
 Atom  C3     Shell    10 SP   3
   7.8682723500e+00  -1.1933241980e-01   6.8999066590e-02
   1.8812885400e+00  -1.6085415170e-01   3.1642396100e-01
   5.4424925800e-01   1.1434564380e+00   7.4430829090e-01
 Atom  C3     Shell    11 SP   1
   1.6871447820e-01   1.0000000000e+00   1.0000000000e+00
 Atom  C3     Shell    12 D    1
   8.0000000000e-01   1.0000000000e+00
 Atom  C4     Shell    13 S    6
   3.0475248800e+03   1.8347371320e-03
   4.5736951800e+02   1.4037322810e-02
   1.0394868500e+02   6.8842622260e-02
   2.9210155300e+01   2.3218444320e-01
   9.2866629600e+00   4.6794134840e-01
   3.1639269600e+00   3.6231198530e-01
 Atom  C4     Shell    14 SP   3
   7.8682723500e+00  -1.1933241980e-01   6.8999066590e-02
   1.8812885400e+00  -1.6085415170e-01   3.1642396100e-01
   5.4424925800e-01   1.1434564380e+00   7.4430829090e-01
 Atom  C4     Shell    15 SP   1
   1.6871447820e-01   1.0000000000e+00   1.0000000000e+00
 Atom  C4     Shell    16 D    1
   8.0000000000e-01   1.0000000000e+00
 Atom  C5     Shell    17 S    6
   3.0475248800e+03   1.8347371320e-03
   4.5736951800e+02   1.4037322810e-02
   1.0394868500e+02   6.8842622260e-02
   2.9210155300e+01   2.3218444320e-01
   9.2866629600e+00   4.6794134840e-01
   3.1639269600e+00   3.6231198530e-01
 Atom  C5     Shell    18 SP   3
   7.8682723500e+00  -1.1933241980e-01   6.8999066590e-02
   1.8812885400e+00  -1.6085415170e-01   3.1642396100e-01
   5.4424925800e-01   1.1434564380e+00   7.4430829090e-01
 Atom  C5     Shell    19 SP   1
   1.6871447820e-01   1.0000000000e+00   1.0000000000e+00
 Atom  C5     Shell    20 D    1
   8.0000000000e-01   1.0000000000e+00
 Atom  H6     Shell    21 S    3
   1.8731136960e+01   3.3494604340e-02
   2.8253943650e+00   2.3472695350e-01
   6.4012169230e-01   8.1375732610e-01
 Atom  H6     Shell    22 S    1
   1.6127775880e-01   1.0000000000e+00
 Atom  H7     Shell    23 S    3
   1.8731136960e+01   3.3494604340e-02
   2.8253943650e+00   2.3472695350e-01
   6.4012169230e-01   8.1375732610e-01
 Atom  H7     Shell    24 S    1
   1.6127775880e-01   1.0000000000e+00
 Atom  H8     Shell    25 S    3
   1.8731136960e+01   3.3494604340e-02
   2.8253943650e+00   2.3472695350e-01
   6.4012169230e-01   8.1375732610e-01
 Atom  H8     Shell    26 S    1
   1.6127775880e-01   1.0000000000e+00
 Atom  H9     Shell    27 S    3
   1.8731136960e+01   3.3494604340e-02
   2.8253943650e+00   2.3472695350e-01
   6.4012169230e-01   8.1375732610e-01
 Atom  H9     Shell    28 S    1
   1.6127775880e-01   1.0000000000e+00
 Atom  H10    Shell    29 S    3
   1.8731136960e+01   3.3494604340e-02
   2.8253943650e+00   2.3472695350e-01
   6.4012169230e-01   8.1375732610e-01
 Atom  H10    Shell    30 S    1
   1.6127775880e-01   1.0000000000e+00

 Molecular Orbital Coefficients:
                           1         2         3         4         5
                           O         O         O         O         O    
     Eigenvalues --  -388.41075-275.71329-275.71329-274.46663-274.46663
    1 N1      .S        1.00816   0.00326   0.00326  -0.00055  -0.00055
    2 N1      .S       -0.01496  -0.00111  -0.00111   0.00041   0.00041
    3 N1      .X       -0.00000  -0.00000   0.00000   0.00000  -0.00000
    4 N1      .Y        0.00000   0.01420  -0.01420  -0.00017   0.00017
    5 N1      .Z       -0.00249   0.01126   0.01126  -0.00572  -0.00572
    6 N1      .S        0.00930  -0.02740  -0.02740   0.00495   0.00495
    7 N1      .X       -0.00000  -0.00000   0.00000   0.00000  -0.00000
    8 N1      .Y        0.00000   0.02530  -0.02530   0.00021  -0.00021
    9 N1      .Z       -0.01921   0.02316   0.02316  -0.01133  -0.01133
   10 N1      .XX      -0.01027   0.00058   0.00058  -0.00007  -0.00007
   11 N1      .YY      -0.00999   0.00022   0.00022  -0.00006  -0.00006
   12 N1      .ZZ      -0.01002   0.00037   0.00037  -0.00002  -0.00002
   13 N1      .XY       0.00000  -0.00000   0.00000  -0.00000   0.00000
   14 N1      .XZ       0.00000   0.00000  -0.00000  -0.00000   0.00000
   15 N1      .YZ      -0.00000  -0.00021   0.00021   0.00001  -0.00001
   16 C2      .S        0.00250  -0.00026   1.00914   0.00402  -0.00044
   17 C2      .S        0.00134   0.00087  -0.00314   0.00094  -0.00036
   18 C2      .X       -0.00000   0.00000   0.00000  -0.00000  -0.00000
   19 C2      .Y        0.01103  -0.00272  -0.00529   0.00954  -0.00481
   20 C2      .Z       -0.00571  -0.00191  -0.00450   0.01946  -0.00126
   21 C2      .S       -0.02827  -0.00816   0.03180  -0.05190   0.00911
   22 C2      .X       -0.00000   0.00000   0.00000  -0.00000  -0.00000
   23 C2      .Y        0.03264   0.00006  -0.02559   0.03121  -0.01445
   24 C2      .Z       -0.00813  -0.00326  -0.01781   0.04457  -0.00089
   25 C2      .XX      -0.00128  -0.00038  -0.00611  -0.00263   0.00047
   26 C2      .YY      -0.00169  -0.00028  -0.00603  -0.00262   0.00051
   27 C2      .ZZ      -0.00151  -0.00029  -0.00600  -0.00299   0.00048
   28 C2      .XY       0.00000  -0.00000  -0.00000   0.00000   0.00000
   29 C2      .XZ       0.00000  -0.00000  -0.00000   0.00000   0.00000
   30 C2      .YZ       0.00031  -0.00001  -0.00002  -0.00014   0.00002
   31 C3      .S        0.00250   1.00914  -0.00026  -0.00044   0.00402
   32 C3      .S        0.00134  -0.00314   0.00087  -0.00036   0.00094
   33 C3      .X       -0.00000   0.00000  -0.00000  -0.00000  -0.00000
   34 C3      .Y       -0.01103   0.00529   0.00272   0.00481  -0.00954
   35 C3      .Z       -0.00571  -0.00450  -0.00191  -0.00126   0.01946
   36 C3      .S       -0.02827   0.03180  -0.00816   0.00911  -0.05190
   37 C3      .X       -0.00000   0.00000  -0.00000  -0.00000  -0.00000
   38 C3      .Y       -0.03264   0.02559  -0.00006   0.01445  -0.03121
   39 C3      .Z       -0.00813  -0.01781  -0.00326  -0.00089   0.04457
   40 C3      .XX      -0.00128  -0.00611  -0.00038   0.00047  -0.00263
   41 C3      .YY      -0.00169  -0.00603  -0.00028   0.00051  -0.00262
   42 C3      .ZZ      -0.00151  -0.00600  -0.00029   0.00048  -0.00299
   43 C3      .XY      -0.00000   0.00000   0.00000  -0.00000   0.00000
   44 C3      .XZ      -0.00000  -0.00000  -0.00000   0.00000   0.00000
   45 C3      .YZ      -0.00031   0.00002   0.00001  -0.00002   0.00014
   46 C4      .S       -0.00044  -0.00038   0.00456   1.00925   0.00365
   47 C4      .S       -0.00049   0.00029  -0.00016  -0.00443   0.00163
   48 C4      .X       -0.00000   0.00000   0.00000  -0.00000  -0.00000
   49 C4      .Y       -0.00179  -0.00237  -0.00417  -0.00278   0.01801
   50 C4      .Z        0.00296   0.00529  -0.02215   0.00622  -0.00257
   51 C4      .S        0.00608   0.00887  -0.05539   0.04075  -0.04700
   52 C4      .X       -0.00000   0.00000   0.00000  -0.00000  -0.00000
   53 C4      .Y       -0.00873  -0.00517  -0.00331  -0.02104   0.04803
   54 C4      .Z        0.00877   0.01478  -0.05637   0.03196  -0.01555
   55 C4      .XX       0.00013   0.00041  -0.00207  -0.00674  -0.00157
   56 C4      .YY       0.00018   0.00041  -0.00205  -0.00666  -0.00195
   57 C4      .ZZ       0.00024   0.00039  -0.00239  -0.00663  -0.00154
   58 C4      .XY      -0.00000   0.00000   0.00000   0.00000  -0.00000
   59 C4      .XZ      -0.00000   0.00000   0.00000  -0.00000  -0.00000
   60 C4      .YZ      -0.00003  -0.00002  -0.00013   0.00003  -0.00001
   61 C5      .S       -0.00044   0.00456  -0.00038   0.00365   1.00925
   62 C5      .S       -0.00049  -0.00016   0.00029   0.00163  -0.00443
   63 C5      .X       -0.00000   0.00000  -0.00000  -0.00000   0.00000
   64 C5      .Y        0.00179   0.00417   0.00237  -0.01801   0.00278
   65 C5      .Z        0.00296  -0.02215   0.00529  -0.00257   0.00622
   66 C5      .S        0.00608  -0.05539   0.00887  -0.04700   0.04075
   67 C5      .X       -0.00000   0.00000  -0.00000  -0.00000   0.00000
   68 C5      .Y        0.00873   0.00331   0.00517  -0.04803   0.02104
   69 C5      .Z        0.00877  -0.05637   0.01478  -0.01555   0.03196
   70 C5      .XX       0.00013  -0.00207   0.00041  -0.00157  -0.00674
   71 C5      .YY       0.00018  -0.00205   0.00041  -0.00195  -0.00666
   72 C5      .ZZ       0.00024  -0.00239   0.00039  -0.00154  -0.00663
   73 C5      .XY      -0.00000   0.00000  -0.00000  -0.00000  -0.00000
   74 C5      .XZ       0.00000   0.00000   0.00000  -0.00000  -0.00000
   75 C5      .YZ       0.00003   0.00013   0.00002   0.00001  -0.00003
   76 H6      .S       -0.00398  -0.00295  -0.00295   0.00156   0.00156
   77 H6      .S       -0.00334  -0.00407  -0.00407   0.00128   0.00128
   78 H7      .S       -0.00203   0.00056  -0.00680  -0.00504   0.00156
   79 H7      .S       -0.00658   0.00004  -0.00989  -0.01189   0.00334
   80 H8      .S       -0.00203  -0.00680   0.00056   0.00156  -0.00504
   81 H8      .S       -0.00658  -0.00989   0.00004   0.00334  -0.01189
   82 H9      .S        0.00146   0.00170  -0.00404  -0.00522  -0.00393
   83 H9      .S        0.00318   0.00329  -0.00989  -0.00632  -0.01002
   84 H10     .S        0.00146  -0.00404   0.00170  -0.00393  -0.00522
   85 H10     .S        0.00318  -0.00989   0.00329  -0.01002  -0.00632
                           6         7         8         9        10
                           O         O         O         O         O    
     Eigenvalues --   -23.21284 -23.21284 -20.36925 -20.28057 -20.28057
    1 N1      .S       -0.06010  -0.06010  -0.05553  -0.00709  -0.00709
    2 N1      .S        0.28419   0.28419   0.23971   0.03167   0.03167
    3 N1      .X       -0.00000   0.00000   0.00000   0.00000  -0.00000
    4 N1      .Y       -0.33944   0.33944  -0.00000   0.02372  -0.02372
    5 N1      .Z       -0.18261  -0.18261   0.42064  -0.06958  -0.06958
    6 N1      .S        0.30177   0.30177   0.29236  -0.04456  -0.04456
    7 N1      .X        0.00000  -0.00000   0.00000   0.00000   0.00000
    8 N1      .Y       -0.15548   0.15548   0.00000   0.08564  -0.08564
    9 N1      .Z       -0.06536  -0.06536   0.14195   0.02803   0.02803
   10 N1      .XX      -0.01108  -0.01108  -0.01186   0.00474   0.00474
   11 N1      .YY       0.00253   0.00253  -0.00966   0.00184   0.00184
   12 N1      .ZZ       0.00058   0.00058   0.02200   0.00295   0.00295
   13 N1      .XY      -0.00000  -0.00000  -0.00000   0.00000  -0.00000
   14 N1      .XZ      -0.00000  -0.00000  -0.00000  -0.00000   0.00000
   15 N1      .YZ       0.00805  -0.00805  -0.00000   0.00314  -0.00314
   16 C2      .S        0.01024  -0.03358   0.00998   0.05605  -0.00307
   17 C2      .S       -0.04005   0.22303  -0.02215  -0.28760   0.01290
   18 C2      .X        0.00000  -0.00000  -0.00000  -0.00000   0.00000
   19 C2      .Y        0.07819  -0.25668   0.02954   0.06390  -0.02657
   20 C2      .Z        0.00174   0.21645  -0.07358   0.33681  -0.00493
   21 C2      .S        0.05941   0.03589  -0.08246  -0.24064   0.17149
   22 C2      .X       -0.00000  -0.00000   0.00000  -0.00000   0.00000
   23 C2      .Y       -0.04987   0.03721   0.08200  -0.03158  -0.04686
   24 C2      .Z       -0.14776   0.04544   0.01557   0.07091  -0.02709
   25 C2      .XX       0.00014  -0.01490  -0.00489   0.00982   0.00827
   26 C2      .YY       0.00299   0.01107  -0.00628   0.00761   0.00985
   27 C2      .ZZ       0.00057  -0.00137  -0.00299  -0.00808   0.00916
   28 C2      .XY      -0.00000   0.00000  -0.00000  -0.00000   0.00000
   29 C2      .XZ      -0.00000  -0.00000  -0.00000   0.00000  -0.00000
   30 C2      .YZ      -0.00226  -0.02331  -0.00241  -0.01144   0.00030
   31 C3      .S       -0.03358   0.01024   0.00998  -0.00307   0.05605
   32 C3      .S        0.22303  -0.04005  -0.02215   0.01290  -0.28760
   33 C3      .X        0.00000  -0.00000  -0.00000  -0.00000  -0.00000
   34 C3      .Y        0.25668  -0.07819  -0.02954   0.02657  -0.06390
   35 C3      .Z        0.21645   0.00174  -0.07358  -0.00493   0.33681
   36 C3      .S        0.03589   0.05941  -0.08246   0.17149  -0.24064
   37 C3      .X        0.00000   0.00000  -0.00000  -0.00000  -0.00000
   38 C3      .Y       -0.03721   0.04987  -0.08200   0.04686   0.03158
   39 C3      .Z        0.04544  -0.14776   0.01557  -0.02709   0.07091
   40 C3      .XX      -0.01490   0.00014  -0.00489   0.00827   0.00982
   41 C3      .YY       0.01107   0.00299  -0.00628   0.00985   0.00761
   42 C3      .ZZ      -0.00137   0.00057  -0.00299   0.00916  -0.00808
   43 C3      .XY       0.00000  -0.00000  -0.00000  -0.00000   0.00000
   44 C3      .XZ       0.00000   0.00000   0.00000   0.00000   0.00000
   45 C3      .YZ       0.02331   0.00226   0.00241  -0.00030   0.01144
   46 C4      .S        0.00429   0.00909  -0.00139   0.04747  -0.00977
   47 C4      .S        0.00906  -0.03048  -0.00220  -0.26711   0.04374
   48 C4      .X        0.00000  -0.00000   0.00000  -0.00000   0.00000
   49 C4      .Y        0.00559   0.02748  -0.01671  -0.13766  -0.06208
   50 C4      .Z       -0.01359  -0.05928   0.01402  -0.31258   0.04848
   51 C4      .S       -0.24387   0.07953   0.07005  -0.15360  -0.07633
   52 C4      .X        0.00000   0.00000  -0.00000  -0.00000  -0.00000
   53 C4      .Y        0.05144  -0.12439   0.01434  -0.07012  -0.02943
   54 C4      .Z       -0.08161   0.01237   0.01528  -0.01532  -0.13931
   55 C4      .XX      -0.00604   0.00118   0.00234   0.01147   0.00090
   56 C4      .YY      -0.00672  -0.00050   0.00158   0.01037  -0.00293
   57 C4      .ZZ      -0.00735   0.00491   0.00194  -0.01324   0.00135
   58 C4      .XY      -0.00000   0.00000   0.00000   0.00000  -0.00000
   59 C4      .XZ       0.00000  -0.00000   0.00000  -0.00000   0.00000
   60 C4      .YZ       0.00082   0.00022  -0.00024  -0.00632   0.00051
   61 C5      .S        0.00909   0.00429  -0.00139  -0.00977   0.04747
   62 C5      .S       -0.03048   0.00906  -0.00220   0.04374  -0.26711
   63 C5      .X        0.00000  -0.00000  -0.00000  -0.00000  -0.00000
   64 C5      .Y       -0.02748  -0.00559   0.01671   0.06208   0.13766
   65 C5      .Z       -0.05928  -0.01359   0.01402   0.04848  -0.31258
   66 C5      .S        0.07953  -0.24387   0.07005  -0.07633  -0.15360
   67 C5      .X       -0.00000  -0.00000   0.00000  -0.00000   0.00000
   68 C5      .Y        0.12439  -0.05144  -0.01434   0.02943   0.07012
   69 C5      .Z        0.01237  -0.08161   0.01528  -0.13931  -0.01532
   70 C5      .XX       0.00118  -0.00604   0.00234   0.00090   0.01147
   71 C5      .YY      -0.00050  -0.00672   0.00158  -0.00293   0.01037
   72 C5      .ZZ       0.00491  -0.00735   0.00194   0.00135  -0.01324
   73 C5      .XY       0.00000   0.00000   0.00000   0.00000  -0.00000
   74 C5      .XZ      -0.00000  -0.00000  -0.00000  -0.00000  -0.00000
   75 C5      .YZ      -0.00022  -0.00082   0.00024  -0.00051   0.00632
   76 H6      .S       -0.05133  -0.05133   0.32420   0.00030   0.00030
   77 H6      .S       -0.04891  -0.04891   0.14531  -0.00511  -0.00511
   78 H7      .S        0.00873  -0.03773  -0.01352   0.05609  -0.00222
   79 H7      .S        0.05783  -0.07389  -0.03364   0.09945   0.00247
   80 H8      .S       -0.03773   0.00873  -0.01352  -0.00222   0.05609
   81 H8      .S       -0.07389   0.05783  -0.03364   0.00247   0.09945
   82 H9      .S        0.00095   0.00004  -0.00581   0.05279  -0.00129
   83 H9      .S       -0.01550   0.03661  -0.01371   0.09288  -0.04364
   84 H10     .S        0.00004   0.00095  -0.00581  -0.00129   0.05279
   85 H10     .S        0.03661  -0.01550  -0.01371  -0.04364   0.09288
                          11        12        13        14        15
                           O         O         O         O         O    
     Eigenvalues --   -18.95272 -16.43521 -16.43521 -15.70627 -15.70627
    1 N1      .S        0.00577   0.01012  -0.01012   0.00137   0.00137
    2 N1      .S        0.01166  -0.01337   0.01337   0.00595   0.00595
    3 N1      .X        0.00000   0.00000   0.00000  -0.00000   0.00000
    4 N1      .Y       -0.00000  -0.07392  -0.07392   0.00756  -0.00756
    5 N1      .Z       -0.00020  -0.00880   0.00880   0.01726   0.01726
    6 N1      .S       -0.18072  -0.09977   0.09977  -0.04155  -0.04155
    7 N1      .X        0.00000  -0.00000   0.00000  -0.00000   0.00000
    8 N1      .Y        0.00000  -0.04565  -0.04565  -0.01798   0.01798
    9 N1      .Z        0.04903   0.06414  -0.06414   0.00830   0.00830
   10 N1      .XX       0.00751   0.00227  -0.00227   0.00144   0.00144
   11 N1      .YY       0.00700   0.00584  -0.00584   0.00233   0.00233
   12 N1      .ZZ       0.00607   0.00060  -0.00060   0.00156   0.00156
   13 N1      .XY       0.00000   0.00000   0.00000  -0.00000  -0.00000
   14 N1      .XZ       0.00000   0.00000   0.00000   0.00000  -0.00000
   15 N1      .YZ       0.00000  -0.00140  -0.00140   0.00039  -0.00039
   16 C2      .S        0.01206  -0.05519  -0.00031  -0.01151   0.00101
   17 C2      .S       -0.03324   0.24041  -0.00363   0.02009   0.00528
   18 C2      .X       -0.00000   0.00000  -0.00000   0.00000  -0.00000
   19 C2      .Y        0.06956   0.33724   0.01006   0.02178   0.01787
   20 C2      .Z        0.04927   0.13544   0.00695  -0.07819  -0.00006
   21 C2      .S        0.02078   0.31958  -0.00414   0.13488  -0.07427
   22 C2      .X       -0.00000   0.00000   0.00000  -0.00000  -0.00000
   23 C2      .Y       -0.08215   0.01477  -0.01105  -0.08696   0.01969
   24 C2      .Z        0.06425   0.01187  -0.00425  -0.08280   0.01791
   25 C2      .XX      -0.00066  -0.00637  -0.00132   0.00572  -0.00243
   26 C2      .YY      -0.00070   0.01790  -0.00140   0.00808  -0.00255
   27 C2      .ZZ       0.00229   0.00025  -0.00027   0.00393  -0.00223
   28 C2      .XY       0.00000   0.00000   0.00000  -0.00000   0.00000
   29 C2      .XZ      -0.00000   0.00000  -0.00000  -0.00000   0.00000
   30 C2      .YZ       0.00195   0.01744  -0.00011   0.00152  -0.00037
   31 C3      .S        0.01206   0.00031   0.05519   0.00101  -0.01151
   32 C3      .S       -0.03324   0.00363  -0.24041   0.00528   0.02009
   33 C3      .X       -0.00000  -0.00000  -0.00000   0.00000   0.00000
   34 C3      .Y       -0.06956   0.01006   0.33724  -0.01787  -0.02178
   35 C3      .Z        0.04927  -0.00695  -0.13544  -0.00006  -0.07819
   36 C3      .S        0.02078   0.00414  -0.31958  -0.07427   0.13488
   37 C3      .X       -0.00000  -0.00000  -0.00000  -0.00000   0.00000
   38 C3      .Y        0.08215  -0.01105   0.01477  -0.01969   0.08696
   39 C3      .Z        0.06425   0.00425  -0.01187   0.01791  -0.08280
   40 C3      .XX      -0.00066   0.00132   0.00637  -0.00243   0.00572
   41 C3      .YY      -0.00070   0.00140  -0.01790  -0.00255   0.00808
   42 C3      .ZZ       0.00229   0.00027  -0.00025  -0.00223   0.00393
   43 C3      .XY      -0.00000   0.00000   0.00000  -0.00000   0.00000
   44 C3      .XZ       0.00000  -0.00000  -0.00000   0.00000  -0.00000
   45 C3      .YZ      -0.00195  -0.00011   0.01744   0.00037  -0.00152
   46 C4      .S       -0.04764   0.01250   0.00095   0.05258  -0.01116
   47 C4      .S        0.26311  -0.01431   0.00361  -0.23608   0.01380
   48 C4      .X       -0.00000  -0.00000  -0.00000   0.00000   0.00000
   49 C4      .Y       -0.34950  -0.06317   0.00546  -0.21783  -0.06335
   50 C4      .Z       -0.04053  -0.05318  -0.01771   0.29184  -0.04273
   51 C4      .S        0.19409  -0.16028  -0.07121  -0.33557   0.14290
   52 C4      .X       -0.00000  -0.00000   0.00000   0.00000   0.00000
   53 C4      .Y       -0.06469   0.04369   0.02881  -0.01177  -0.10005
   54 C4      .Z       -0.05321  -0.12736  -0.00941   0.00735   0.07408
   55 C4      .XX      -0.01049  -0.00387  -0.00148   0.00724   0.00363
   56 C4      .YY       0.01399  -0.00370  -0.00167  -0.00526   0.00357
   57 C4      .ZZ      -0.00905  -0.00673  -0.00155  -0.01252   0.00494
   58 C4      .XY       0.00000  -0.00000   0.00000  -0.00000  -0.00000
   59 C4      .XZ      -0.00000  -0.00000  -0.00000   0.00000  -0.00000
   60 C4      .YZ      -0.00308   0.00239   0.00054   0.01735  -0.00231
   61 C5      .S       -0.04764  -0.00095  -0.01250  -0.01116   0.05258
   62 C5      .S        0.26311  -0.00361   0.01431   0.01380  -0.23608
   63 C5      .X       -0.00000   0.00000  -0.00000  -0.00000   0.00000
   64 C5      .Y        0.34950   0.00546  -0.06317   0.06335   0.21783
   65 C5      .Z       -0.04053   0.01771   0.05318  -0.04273   0.29184
   66 C5      .S        0.19409   0.07121   0.16028   0.14290  -0.33557
   67 C5      .X       -0.00000   0.00000   0.00000   0.00000  -0.00000
   68 C5      .Y        0.06469   0.02881   0.04369   0.10005   0.01177
   69 C5      .Z       -0.05321   0.00941   0.12736   0.07408   0.00735
   70 C5      .XX      -0.01049   0.00148   0.00387   0.00363   0.00724
   71 C5      .YY       0.01399   0.00167   0.00370   0.00357  -0.00526
   72 C5      .ZZ      -0.00905   0.00155   0.00673   0.00494  -0.01252
   73 C5      .XY       0.00000  -0.00000  -0.00000   0.00000   0.00000
   74 C5      .XZ      -0.00000   0.00000   0.00000  -0.00000   0.00000
   75 C5      .YZ       0.00308   0.00054   0.00239   0.00231  -0.01735
   76 H6      .S        0.00131  -0.01836   0.01836   0.00539   0.00539
   77 H6      .S       -0.00710  -0.01636   0.01636   0.00251   0.00251
   78 H7      .S       -0.00426   0.33218   0.00351   0.01467   0.00296
   79 H7      .S        0.03211   0.26727   0.00983   0.03790   0.00258
   80 H8      .S       -0.00426  -0.00351  -0.33218   0.00296   0.01467
   81 H8      .S        0.03211  -0.00983  -0.26727   0.00258   0.03790
   82 H9      .S       -0.04978  -0.01451   0.00291  -0.33259   0.01445
   83 H9      .S       -0.08758  -0.04197   0.00251  -0.27559   0.04045
   84 H10     .S       -0.04978  -0.00291   0.01451   0.01445  -0.33259
   85 H10     .S       -0.08758  -0.00251   0.04197   0.04045  -0.27559
                          16        17        18        19        20
                           O         O         O         V         V    
     Eigenvalues --    -7.83905  -7.83905  -7.71003   2.59088   2.59088
    1 N1      .S        0.00000   0.00000   0.00000  -0.00000  -0.00000
    2 N1      .S        0.00000   0.00000  -0.00000  -0.00000   0.00000
    3 N1      .X       -0.06728  -0.06728   0.69300  -0.07696  -0.07696
    4 N1      .Y        0.00000   0.00000   0.00000  -0.00000  -0.00000
    5 N1      .Z       -0.00000  -0.00000  -0.00000   0.00000   0.00000
    6 N1      .S        0.00000   0.00000  -0.00000   0.00000   0.00000
    7 N1      .X       -0.05423  -0.05423   0.51997  -0.05737  -0.05737
    8 N1      .Y        0.00000   0.00000   0.00000   0.00000  -0.00000
    9 N1      .Z       -0.00000  -0.00000  -0.00000  -0.00000  -0.00000
   10 N1      .XX       0.00000  -0.00000   0.00000  -0.00000  -0.00000
   11 N1      .YY       0.00000  -0.00000   0.00000  -0.00000  -0.00000
   12 N1      .ZZ       0.00000   0.00000  -0.00000  -0.00000  -0.00000
   13 N1      .XY      -0.00021   0.00021   0.00000  -0.00001   0.00001
   14 N1      .XZ       0.00049   0.00049  -0.00885   0.00092   0.00092
   15 N1      .YZ       0.00000   0.00000  -0.00000  -0.00000   0.00000
   16 C2      .S        0.00000  -0.00000  -0.00000   0.00000  -0.00000
   17 C2      .S       -0.00000  -0.00000   0.00000   0.00000  -0.00000
   18 C2      .X        0.00171   0.42412  -0.08414   0.57863  -0.00525
   19 C2      .Y        0.00000   0.00000   0.00000   0.00000   0.00000
   20 C2      .Z        0.00000   0.00000  -0.00000   0.00000  -0.00000
   21 C2      .S       -0.00000  -0.00000  -0.00000  -0.00000   0.00000
   22 C2      .X       -0.00365   0.29410  -0.06772   0.41796   0.00118
   23 C2      .Y        0.00000   0.00000   0.00000   0.00000  -0.00000
   24 C2      .Z        0.00000   0.00000  -0.00000   0.00000  -0.00000
   25 C2      .XX      -0.00000   0.00000  -0.00000   0.00000  -0.00000
   26 C2      .YY      -0.00000   0.00000  -0.00000   0.00000  -0.00000
   27 C2      .ZZ      -0.00000   0.00000  -0.00000   0.00000   0.00000
   28 C2      .XY      -0.00004  -0.01013   0.00094  -0.01278  -0.00017
   29 C2      .XZ       0.00000  -0.01188  -0.00031  -0.01785   0.00034
   30 C2      .YZ      -0.00000  -0.00000   0.00000  -0.00000   0.00000
   31 C3      .S       -0.00000  -0.00000   0.00000   0.00000   0.00000
   32 C3      .S        0.00000  -0.00000   0.00000  -0.00000   0.00000
   33 C3      .X        0.42412   0.00171  -0.08414  -0.00525   0.57863
   34 C3      .Y       -0.00000  -0.00000  -0.00000   0.00000  -0.00000
   35 C3      .Z       -0.00000   0.00000   0.00000  -0.00000   0.00000
   36 C3      .S        0.00000  -0.00000   0.00000   0.00000  -0.00000
   37 C3      .X        0.29410  -0.00365  -0.06772   0.00118   0.41796
   38 C3      .Y       -0.00000   0.00000   0.00000  -0.00000  -0.00000
   39 C3      .Z       -0.00000  -0.00000   0.00000  -0.00000   0.00000
   40 C3      .XX       0.00000  -0.00000   0.00000   0.00000   0.00000
   41 C3      .YY       0.00000  -0.00000   0.00000   0.00000   0.00000
   42 C3      .ZZ       0.00000  -0.00000   0.00000   0.00000  -0.00000
   43 C3      .XY       0.01013   0.00004  -0.00094   0.00017   0.01278
   44 C3      .XZ      -0.01188   0.00000  -0.00031   0.00034  -0.01785
   45 C3      .YZ      -0.00000  -0.00000  -0.00000  -0.00000   0.00000
   46 C4      .S        0.00000   0.00000  -0.00000  -0.00000   0.00000
   47 C4      .S       -0.00000  -0.00000  -0.00000  -0.00000   0.00000
   48 C4      .X       -0.06681   0.42341   0.00493  -0.57710   0.07300
   49 C4      .Y       -0.00000  -0.00000   0.00000  -0.00000  -0.00000
   50 C4      .Z       -0.00000  -0.00000   0.00000  -0.00000   0.00000
   51 C4      .S        0.00000   0.00000  -0.00000   0.00000  -0.00000
   52 C4      .X       -0.05548   0.29401  -0.00215  -0.42405   0.05467
   53 C4      .Y       -0.00000  -0.00000  -0.00000   0.00000   0.00000
   54 C4      .Z        0.00000  -0.00000   0.00000   0.00000  -0.00000
   55 C4      .XX       0.00000  -0.00000  -0.00000  -0.00000   0.00000
   56 C4      .YY       0.00000  -0.00000  -0.00000  -0.00000   0.00000
   57 C4      .ZZ       0.00000  -0.00000  -0.00000   0.00000   0.00000
   58 C4      .XY      -0.00004  -0.00038   0.00003  -0.00074  -0.00038
   59 C4      .XZ      -0.00044   0.01681   0.00010  -0.02266   0.00061
   60 C4      .YZ      -0.00000   0.00000   0.00000  -0.00000   0.00000
   61 C5      .S       -0.00000   0.00000   0.00000   0.00000  -0.00000
   62 C5      .S        0.00000   0.00000   0.00000   0.00000  -0.00000
   63 C5      .X        0.42341  -0.06681   0.00493   0.07300  -0.57710
   64 C5      .Y        0.00000   0.00000   0.00000  -0.00000  -0.00000
   65 C5      .Z        0.00000   0.00000  -0.00000   0.00000  -0.00000
   66 C5      .S       -0.00000  -0.00000  -0.00000  -0.00000   0.00000
   67 C5      .X        0.29401  -0.05548  -0.00215   0.05467  -0.42405
   68 C5      .Y       -0.00000  -0.00000  -0.00000   0.00000   0.00000
   69 C5      .Z       -0.00000   0.00000  -0.00000  -0.00000   0.00000
   70 C5      .XX      -0.00000  -0.00000  -0.00000  -0.00000  -0.00000
   71 C5      .YY      -0.00000   0.00000  -0.00000   0.00000  -0.00000
   72 C5      .ZZ      -0.00000  -0.00000  -0.00000  -0.00000  -0.00000
   73 C5      .XY       0.00038   0.00004  -0.00003   0.00038   0.00074
   74 C5      .XZ       0.01681  -0.00044   0.00010   0.00061  -0.02266
   75 C5      .YZ      -0.00000   0.00000   0.00000  -0.00000   0.00000
   76 H6      .S        0.00000   0.00000   0.00000   0.00000   0.00000
   77 H6      .S        0.00000   0.00000   0.00000   0.00000  -0.00000
   78 H7      .S       -0.00000  -0.00000   0.00000   0.00000   0.00000
   79 H7      .S        0.00000  -0.00000   0.00000  -0.00000   0.00000
   80 H8      .S       -0.00000   0.00000  -0.00000  -0.00000  -0.00000
   81 H8      .S       -0.00000   0.00000  -0.00000  -0.00000  -0.00000
   82 H9      .S       -0.00000   0.00000  -0.00000   0.00000  -0.00000
   83 H9      .S       -0.00000   0.00000  -0.00000   0.00000  -0.00000
   84 H10     .S        0.00000   0.00000   0.00000  -0.00000   0.00000
   85 H10     .S       -0.00000   0.00000   0.00000  -0.00000   0.00000
                          21        22        23        24        25
                           V         V         V         V         V    
     Eigenvalues --    14.45929  15.13797  15.13797  15.15893  15.15893
    1 N1      .S        0.07670   0.08201   0.08201   0.00991  -0.00991
    2 N1      .S       -0.33252  -0.48563  -0.48563   0.02297  -0.02297
    3 N1      .X       -0.00000  -0.00000   0.00000  -0.00000   0.00000
    4 N1      .Y        0.00000   0.58861  -0.58861   0.06077   0.06077
    5 N1      .Z       -0.67609   0.34248   0.34248  -0.05712   0.05712
    6 N1      .S       -0.44315  -0.09363  -0.09363  -0.18529   0.18529
    7 N1      .X        0.00000   0.00000  -0.00000  -0.00000  -0.00000
    8 N1      .Y        0.00000   0.16950  -0.16950   0.03834   0.03834
    9 N1      .Z       -0.35240   0.19739   0.19739   0.10334  -0.10334
   10 N1      .XX      -0.01006  -0.03322  -0.03322   0.00961  -0.00961
   11 N1      .YY      -0.01143  -0.05617  -0.05617   0.01243  -0.01243
   12 N1      .ZZ      -0.03121  -0.04789  -0.04789   0.00829  -0.00829
   13 N1      .XY       0.00000  -0.00000   0.00000  -0.00000  -0.00000
   14 N1      .XZ      -0.00000  -0.00000   0.00000   0.00000   0.00000
   15 N1      .YZ      -0.00000  -0.01660   0.01660   0.00111   0.00111
   16 C2      .S       -0.00406  -0.00195  -0.08862  -0.00123   0.08640
   17 C2      .S       -0.01490  -0.01887   0.51432   0.02028  -0.34307
   18 C2      .X       -0.00000  -0.00000   0.00000   0.00000  -0.00000
   19 C2      .Y        0.02985  -0.02392  -0.64002  -0.03342  -0.68081
   20 C2      .Z        0.03027  -0.06210   0.50284  -0.00519  -0.30005
   21 C2      .S        0.04275   0.07091   0.07339   0.00036  -0.68196
   22 C2      .X        0.00000   0.00000  -0.00000   0.00000   0.00000
   23 C2      .Y       -0.04500  -0.07088  -0.04481   0.00753  -0.09962
   24 C2      .Z       -0.00039   0.07379   0.13119   0.01541  -0.04631
   25 C2      .XX      -0.00010   0.00185   0.00196   0.00259  -0.02913
   26 C2      .YY       0.00077  -0.00060   0.04092   0.00266  -0.04830
   27 C2      .ZZ      -0.00129   0.00113   0.02223   0.00177  -0.03436
   28 C2      .XY      -0.00000  -0.00000   0.00000  -0.00000  -0.00000
   29 C2      .XZ       0.00000   0.00000   0.00000   0.00000  -0.00000
   30 C2      .YZ       0.00151   0.00186  -0.03299   0.00008  -0.01377
   31 C3      .S       -0.00406  -0.08862  -0.00195  -0.08640   0.00123
   32 C3      .S       -0.01490   0.51432  -0.01887   0.34307  -0.02028
   33 C3      .X        0.00000   0.00000   0.00000   0.00000   0.00000
   34 C3      .Y       -0.02985   0.64002   0.02392  -0.68081  -0.03342
   35 C3      .Z        0.03027   0.50284  -0.06210   0.30005   0.00519
   36 C3      .S        0.04275   0.07339   0.07091   0.68196  -0.00036
   37 C3      .X       -0.00000  -0.00000   0.00000  -0.00000   0.00000
   38 C3      .Y        0.04500   0.04481   0.07088  -0.09962   0.00753
   39 C3      .Z       -0.00039   0.13119   0.07379   0.04631  -0.01541
   40 C3      .XX      -0.00010   0.00196   0.00185   0.02913  -0.00259
   41 C3      .YY       0.00077   0.04092  -0.00060   0.04830  -0.00266
   42 C3      .ZZ      -0.00129   0.02223   0.00113   0.03436  -0.00177
   43 C3      .XY       0.00000  -0.00000   0.00000   0.00000   0.00000
   44 C3      .XZ       0.00000   0.00000  -0.00000   0.00000   0.00000
   45 C3      .YZ      -0.00151   0.03299  -0.00186  -0.01377   0.00008
   46 C4      .S        0.00357   0.00147   0.00365  -0.00343  -0.01034
   47 C4      .S       -0.00170   0.00259  -0.04859  -0.00243  -0.04395
   48 C4      .X        0.00000   0.00000  -0.00000   0.00000   0.00000
   49 C4      .Y        0.01172   0.00993   0.10312  -0.02135   0.07886
   50 C4      .Z       -0.02174  -0.01229  -0.04798   0.02577  -0.01218
   51 C4      .S       -0.03931  -0.20411   0.22372   0.14543   0.28167
   52 C4      .X       -0.00000  -0.00000   0.00000  -0.00000  -0.00000
   53 C4      .Y        0.01011   0.15366  -0.27846  -0.06422  -0.09669
   54 C4      .Z       -0.02572  -0.01006   0.09342   0.04411   0.17879
   55 C4      .XX      -0.00168  -0.00643   0.00440   0.00383   0.00209
   56 C4      .YY      -0.00120  -0.00569   0.00251   0.00398   0.00195
   57 C4      .ZZ      -0.00143  -0.00599   0.01010   0.00388   0.00435
   58 C4      .XY       0.00000   0.00000  -0.00000  -0.00000   0.00000
   59 C4      .XZ      -0.00000  -0.00000   0.00000  -0.00000  -0.00000
   60 C4      .YZ       0.00015   0.00012  -0.00030  -0.00042  -0.00188
   61 C5      .S        0.00357   0.00365   0.00147   0.01034   0.00343
   62 C5      .S       -0.00170  -0.04859   0.00259   0.04395   0.00243
   63 C5      .X       -0.00000   0.00000   0.00000  -0.00000  -0.00000
   64 C5      .Y       -0.01172  -0.10312  -0.00993   0.07886  -0.02135
   65 C5      .Z       -0.02174  -0.04798  -0.01229   0.01218  -0.02577
   66 C5      .S       -0.03931   0.22372  -0.20411  -0.28167  -0.14543
   67 C5      .X        0.00000   0.00000  -0.00000   0.00000   0.00000
   68 C5      .Y       -0.01011   0.27846  -0.15366  -0.09669  -0.06422
   69 C5      .Z       -0.02572   0.09342  -0.01006  -0.17879  -0.04411
   70 C5      .XX      -0.00168   0.00440  -0.00643  -0.00209  -0.00383
   71 C5      .YY      -0.00120   0.00251  -0.00569  -0.00195  -0.00398
   72 C5      .ZZ      -0.00143   0.01010  -0.00599  -0.00435  -0.00388
   73 C5      .XY      -0.00000   0.00000  -0.00000  -0.00000   0.00000
   74 C5      .XZ      -0.00000   0.00000  -0.00000   0.00000  -0.00000
   75 C5      .YZ      -0.00015   0.00030  -0.00012  -0.00188  -0.00042
   76 H6      .S        0.94850  -0.05330  -0.05330  -0.00440   0.00440
   77 H6      .S        0.45326  -0.01304  -0.01304  -0.02441   0.02441
   78 H7      .S       -0.01229  -0.00381   0.01340   0.00144   0.86900
   79 H7      .S        0.02416  -0.01469  -0.07098  -0.01073   0.47027
   80 H8      .S       -0.01229   0.01340  -0.00381  -0.86900  -0.00144
   81 H8      .S        0.02416  -0.07098  -0.01469  -0.47027   0.01073
   82 H9      .S       -0.00434  -0.00267   0.01717   0.00428  -0.00174
   83 H9      .S       -0.00008  -0.01810   0.09497   0.00942   0.06386
   84 H10     .S       -0.00434   0.01717  -0.00267   0.00174  -0.00428
   85 H10     .S       -0.00008   0.09497  -0.01810  -0.06386  -0.00942
                          26        27        28        29        30
                           V         V         V         V         V    
     Eigenvalues --    15.63890  15.63890  17.31316  18.88592  18.88592
    1 N1      .S       -0.00360  -0.00360   0.00000   0.00196   0.00196
    2 N1      .S       -0.00518  -0.00518   0.00000  -0.02269  -0.02269
    3 N1      .X        0.00000   0.00000  -0.00000  -0.00000   0.00000
    4 N1      .Y        0.00181  -0.00181   0.01614  -0.04471   0.04471
    5 N1      .Z       -0.02956  -0.02956  -0.00000   0.08949   0.08949
    6 N1      .S        0.07692   0.07692  -0.00000   0.10083   0.10083
    7 N1      .X       -0.00000   0.00000   0.00000   0.00000  -0.00000
    8 N1      .Y       -0.03594   0.03594  -0.12580   0.08859  -0.08859
    9 N1      .Z       -0.02904  -0.02904   0.00000  -0.06686  -0.06686
   10 N1      .XX      -0.00253  -0.00253   0.00000  -0.00550  -0.00550
   11 N1      .YY      -0.00323  -0.00323   0.00000  -0.00270  -0.00270
   12 N1      .ZZ      -0.00262  -0.00262   0.00000  -0.00345  -0.00345
   13 N1      .XY      -0.00000  -0.00000  -0.00000  -0.00000   0.00000
   14 N1      .XZ       0.00000  -0.00000  -0.00000  -0.00000   0.00000
   15 N1      .YZ       0.00031  -0.00031  -0.00057   0.00273  -0.00273
   16 C2      .S       -0.00325   0.00831   0.00540  -0.00080  -0.09828
   17 C2      .S       -0.00592   0.03100  -0.02509  -0.03701   0.62652
   18 C2      .X       -0.00000   0.00000   0.00000  -0.00000   0.00000
   19 C2      .Y       -0.03020  -0.06866   0.10679   0.01714  -0.21052
   20 C2      .Z       -0.01263   0.03600  -0.01733  -0.01398  -0.76802
   21 C2      .S        0.14127  -0.23416   0.12697   0.11561   0.03007
   22 C2      .X        0.00000  -0.00000  -0.00000   0.00000  -0.00000
   23 C2      .Y       -0.06194   0.15080  -0.18129  -0.01876   0.04709
   24 C2      .Z       -0.03553   0.09732   0.07147  -0.10578  -0.12950
   25 C2      .XX       0.00543  -0.00567   0.00601   0.00300   0.01016
   26 C2      .YY       0.00552  -0.00752   0.00562   0.00278   0.01511
   27 C2      .ZZ       0.00527  -0.00427   0.00850   0.00240   0.03774
   28 C2      .XY      -0.00000   0.00000   0.00000  -0.00000   0.00000
   29 C2      .XZ      -0.00000  -0.00000   0.00000  -0.00000   0.00000
   30 C2      .YZ       0.00029  -0.00119   0.00195  -0.00000   0.01537
   31 C3      .S        0.00831  -0.00325  -0.00540  -0.09828  -0.00080
   32 C3      .S        0.03100  -0.00592   0.02509   0.62652  -0.03701
   33 C3      .X        0.00000  -0.00000  -0.00000   0.00000   0.00000
   34 C3      .Y        0.06866   0.03020   0.10679   0.21052  -0.01714
   35 C3      .Z        0.03600  -0.01263   0.01733  -0.76802  -0.01398
   36 C3      .S       -0.23416   0.14127  -0.12697   0.03007   0.11561
   37 C3      .X       -0.00000   0.00000  -0.00000  -0.00000   0.00000
   38 C3      .Y       -0.15080   0.06194  -0.18129  -0.04709   0.01876
   39 C3      .Z        0.09732  -0.03553  -0.07147  -0.12950  -0.10578
   40 C3      .XX      -0.00567   0.00543  -0.00601   0.01016   0.00300
   41 C3      .YY      -0.00752   0.00552  -0.00562   0.01511   0.00278
   42 C3      .ZZ      -0.00427   0.00527  -0.00850   0.03774   0.00240
   43 C3      .XY      -0.00000   0.00000  -0.00000  -0.00000   0.00000
   44 C3      .XZ       0.00000  -0.00000  -0.00000   0.00000   0.00000
   45 C3      .YZ       0.00119  -0.00029   0.00195  -0.01537   0.00000
   46 C4      .S        0.00859  -0.08632  -0.09177  -0.00323   0.09254
   47 C4      .S        0.03592   0.32968   0.56049   0.02579  -0.61094
   48 C4      .X        0.00000   0.00000  -0.00000   0.00000  -0.00000
   49 C4      .Y        0.01217   0.44871  -0.77721  -0.00318  -0.27647
   50 C4      .Z        0.07426  -0.59845  -0.04401   0.10438  -0.76540
   51 C4      .S       -0.25315   0.74872   0.01642  -0.18324   0.02832
   52 C4      .X       -0.00000   0.00000   0.00000  -0.00000   0.00000
   53 C4      .Y        0.13809   0.07392  -0.11963   0.00244  -0.14086
   54 C4      .Z       -0.13788  -0.09307  -0.07434  -0.20616  -0.08852
   55 C4      .XX      -0.00231   0.02338   0.01135  -0.00542  -0.01334
   56 C4      .YY      -0.00226   0.03315   0.04573  -0.00880  -0.01603
   57 C4      .ZZ      -0.00334   0.03883   0.01432  -0.00441  -0.04780
   58 C4      .XY       0.00000  -0.00000  -0.00000   0.00000  -0.00000
   59 C4      .XZ      -0.00000   0.00000   0.00000  -0.00000   0.00000
   60 C4      .YZ       0.00180  -0.01357  -0.00386   0.00048  -0.00802
   61 C5      .S       -0.08632   0.00859   0.09177   0.09254  -0.00323
   62 C5      .S        0.32968   0.03592  -0.56049  -0.61094   0.02579
   63 C5      .X        0.00000  -0.00000  -0.00000  -0.00000   0.00000
   64 C5      .Y       -0.44871  -0.01217  -0.77721   0.27647   0.00318
   65 C5      .Z       -0.59845   0.07426   0.04401  -0.76540   0.10438
   66 C5      .S        0.74872  -0.25315  -0.01642   0.02832  -0.18324
   67 C5      .X        0.00000  -0.00000   0.00000   0.00000  -0.00000
   68 C5      .Y       -0.07392  -0.13809  -0.11963   0.14086  -0.00244
   69 C5      .Z       -0.09307  -0.13788   0.07434  -0.08852  -0.20616
   70 C5      .XX       0.02338  -0.00231  -0.01135  -0.01334  -0.00542
   71 C5      .YY       0.03315  -0.00226  -0.04573  -0.01603  -0.00880
   72 C5      .ZZ       0.03883  -0.00334  -0.01432  -0.04780  -0.00441
   73 C5      .XY       0.00000  -0.00000  -0.00000   0.00000  -0.00000
   74 C5      .XZ      -0.00000  -0.00000   0.00000   0.00000  -0.00000
   75 C5      .YZ       0.01357  -0.00180  -0.00386   0.00802  -0.00048
   76 H6      .S       -0.00012  -0.00012   0.00000   0.01538   0.01538
   77 H6      .S        0.00055   0.00055  -0.00000   0.01191   0.01191
   78 H7      .S        0.00376   0.00191   0.00561  -0.00145   0.03979
   79 H7      .S        0.00851  -0.05924   0.05991   0.01540  -0.07517
   80 H8      .S        0.00191   0.00376  -0.00561   0.03979  -0.00145
   81 H8      .S       -0.05924   0.00851  -0.05991  -0.07517   0.01540
   82 H9      .S        0.00011  -0.86406   0.03323  -0.01121  -0.03477
   83 H9      .S       -0.06469  -0.49308  -0.05972  -0.06815   0.06732
   84 H10     .S       -0.86406   0.00011  -0.03323  -0.03477  -0.01121
   85 H10     .S       -0.49308  -0.06469   0.05972   0.06732  -0.06815
                          31        32        33        34        35
                           V         V         V         V         V    
     Eigenvalues --    15.42691  16.12072  16.12072  16.76813  16.76813
    1 N1      .S        0.00711  -0.02079  -0.02079   0.00173   0.00173
    2 N1      .S        0.13513  -0.05401  -0.05401  -0.01044  -0.01044
    3 N1      .X        0.00000  -0.00000  -0.00000   0.00000   0.00000
    4 N1      .Y        0.00000  -0.03225   0.03225  -0.01602   0.01602
    5 N1      .Z        0.18272   0.00558   0.00558   0.00727   0.00727
    6 N1      .S       -0.37181   0.80860   0.80860  -0.26558  -0.26558
    7 N1      .X       -0.00000   0.00000   0.00000  -0.00000  -0.00000
    8 N1      .Y       -0.00000  -0.03720   0.03720  -0.11016   0.11016
    9 N1      .Z       -1.27870  -0.60755  -0.60755   0.01999   0.01999
   10 N1      .XX       0.02975  -0.03192  -0.03192   0.00670   0.00670
   11 N1      .YY       0.02975  -0.03192  -0.03192   0.00670   0.00670
   12 N1      .ZZ       0.02975  -0.03192  -0.03192   0.00670   0.00670
   13 N1      .XY       0.00000  -0.00000   0.00000  -0.00000   0.00000
   14 N1      .XZ      -0.00000   0.00000  -0.00000   0.00000   0.00000
   15 N1      .YZ       0.00000  -0.00000  -0.00000  -0.00000   0.00000
   16 C2      .S        0.00417  -0.01225  -0.00440  -0.00071  -0.00866
   17 C2      .S        0.03385  -0.08187  -0.14134  -0.10246   0.00615
   18 C2      .X       -0.00000  -0.00000  -0.00000  -0.00000   0.00000
   19 C2      .Y        0.05033   0.03967  -0.19863  -0.02206   0.00013
   20 C2      .Z        0.00216  -0.03109  -0.08301  -0.05037   0.03949
   21 C2      .S       -0.41532   0.05324   0.14870   1.22639  -0.45688
   22 C2      .X       -0.00000  -0.00000   0.00000   0.00000  -0.00000
   23 C2      .Y        0.43521  -0.13003   2.40187  -0.88070   0.12450
   24 C2      .Z       -0.17923  -0.10603   1.15396  -0.44449   0.07431
   25 C2      .XX      -0.01512  -0.00529  -0.00688   0.04422  -0.01940
   26 C2      .YY      -0.01512  -0.00529  -0.00688   0.04422  -0.01940
   27 C2      .ZZ      -0.01512  -0.00529  -0.00688   0.04422  -0.01940
   28 C2      .XY      -0.00000  -0.00000   0.00000  -0.00000  -0.00000
   29 C2      .XZ       0.00000   0.00000  -0.00000  -0.00000   0.00000
   30 C2      .YZ      -0.00000   0.00000   0.00000  -0.00000   0.00000
   31 C3      .S        0.00417  -0.00440  -0.01225  -0.00866  -0.00071
   32 C3      .S        0.03385  -0.14134  -0.08187   0.00615  -0.10246
   33 C3      .X       -0.00000   0.00000  -0.00000  -0.00000   0.00000
   34 C3      .Y       -0.05033   0.19863  -0.03967  -0.00013   0.02206
   35 C3      .Z        0.00216  -0.08301  -0.03109   0.03949  -0.05037
   36 C3      .S       -0.41532   0.14870   0.05324  -0.45688   1.22639
   37 C3      .X        0.00000  -0.00000   0.00000  -0.00000  -0.00000
   38 C3      .Y       -0.43521  -2.40187   0.13003  -0.12450   0.88070
   39 C3      .Z       -0.17923   1.15396  -0.10603   0.07431  -0.44449
   40 C3      .XX      -0.01512  -0.00688  -0.00529  -0.01940   0.04422
   41 C3      .YY      -0.01512  -0.00688  -0.00529  -0.01940   0.04422
   42 C3      .ZZ      -0.01512  -0.00688  -0.00529  -0.01940   0.04422
   43 C3      .XY      -0.00000   0.00000  -0.00000   0.00000   0.00000
   44 C3      .XZ      -0.00000   0.00000  -0.00000   0.00000  -0.00000
   45 C3      .YZ      -0.00000  -0.00000  -0.00000  -0.00000  -0.00000
   46 C4      .S        0.00466  -0.00644  -0.00613   0.00177  -0.00758
   47 C4      .S        0.01446  -0.00841  -0.11002  -0.08795  -0.10229
   48 C4      .X       -0.00000   0.00000   0.00000  -0.00000   0.00000
   49 C4      .Y        0.00881   0.03573   0.02284  -0.14868  -0.05217
   50 C4      .Z        0.00765   0.00261   0.05097   0.18623  -0.00109
   51 C4      .S       -0.03944  -0.48667   1.44067  -0.17526   1.28136
   52 C4      .X        0.00000  -0.00000  -0.00000  -0.00000   0.00000
   53 C4      .Y       -0.08440   0.13715  -0.52138   1.68227  -0.70380
   54 C4      .Z       -0.00749  -0.09577   0.91563  -2.24804   0.76009
   55 C4      .XX       0.00022  -0.01479   0.03086  -0.01377   0.02704
   56 C4      .YY       0.00022  -0.01479   0.03086  -0.01377   0.02704
   57 C4      .ZZ       0.00022  -0.01479   0.03086  -0.01377   0.02704
   58 C4      .XY       0.00000   0.00000  -0.00000   0.00000   0.00000
   59 C4      .XZ       0.00000  -0.00000   0.00000   0.00000   0.00000
   60 C4      .YZ       0.00000  -0.00000   0.00000  -0.00000   0.00000
   61 C5      .S        0.00466  -0.00613  -0.00644  -0.00758   0.00177
   62 C5      .S        0.01446  -0.11002  -0.00841  -0.10229  -0.08795
   63 C5      .X       -0.00000   0.00000  -0.00000   0.00000  -0.00000
   64 C5      .Y       -0.00881  -0.02284  -0.03573   0.05217   0.14868
   65 C5      .Z        0.00765   0.05097   0.00261  -0.00109   0.18623
   66 C5      .S       -0.03944   1.44067  -0.48667   1.28136  -0.17526
   67 C5      .X       -0.00000  -0.00000   0.00000   0.00000   0.00000
   68 C5      .Y        0.08440   0.52138  -0.13715   0.70380  -1.68227
   69 C5      .Z       -0.00749   0.91563  -0.09577   0.76009  -2.24804
   70 C5      .XX       0.00022   0.03086  -0.01479   0.02704  -0.01377
   71 C5      .YY       0.00022   0.03086  -0.01479   0.02704  -0.01377
   72 C5      .ZZ       0.00022   0.03086  -0.01479   0.02704  -0.01377
   73 C5      .XY      -0.00000   0.00000  -0.00000   0.00000  -0.00000
   74 C5      .XZ       0.00000  -0.00000   0.00000  -0.00000  -0.00000
   75 C5      .YZ      -0.00000  -0.00000  -0.00000  -0.00000   0.00000
   76 H6      .S       -0.81647   0.07294   0.07294   0.01837   0.01837
   77 H6      .S        2.41396   0.18147   0.18147   0.02528   0.02528
   78 H7      .S        0.00036   0.02232   0.82723   0.05552   0.01288
   79 H7      .S       -0.17401   0.07449  -3.20605   0.32885   0.00369
   80 H8      .S        0.00036   0.82723   0.02232   0.01288   0.05552
   81 H8      .S       -0.17401  -3.20605   0.07449   0.00369   0.32885
   82 H9      .S        0.00862   0.00982   0.05488   0.82930   0.06094
   83 H9      .S       -0.00033  -0.00014   0.32889  -3.22815   0.34315
   84 H10     .S        0.00862   0.05488   0.00982   0.06094   0.82930
   85 H10     .S       -0.00033   0.32889  -0.00014   0.34315  -3.22815
                          36        37        38        39        40
                           V         V         V         V         V    
     Eigenvalues --    19.67882  19.67882  20.72129  20.72129  25.47577
    1 N1      .S        0.03873   0.03873   0.01175   0.01175   0.00000
    2 N1      .S       -0.04906  -0.04906  -0.05155  -0.05155  -0.00000
    3 N1      .X       -0.00000   0.00000   0.00000   0.00000   0.87781
    4 N1      .Y       -0.10872   0.10872  -0.03016   0.03016   0.00000
    5 N1      .Z        0.01238   0.01238   0.02834   0.02834  -0.00000
    6 N1      .S       -1.84640  -1.84640  -0.49157  -0.49157   0.00000
    7 N1      .X        0.00000  -0.00000   0.00000  -0.00000  -1.26998
    8 N1      .Y       -1.35853   1.35853  -0.60488   0.60488  -0.00000
    9 N1      .Z        0.11477   0.11477  -0.03327  -0.03327  -0.00000
   10 N1      .XX       0.04064   0.04064   0.00887   0.00887   0.00000
   11 N1      .YY       0.00113   0.00113   0.00710   0.00710   0.00000
   12 N1      .ZZ       0.04661   0.04661   0.01144   0.01144   0.00000
   13 N1      .XY      -0.00000   0.00000  -0.00000  -0.00000  -0.00000
   14 N1      .XZ       0.00000   0.00000   0.00000   0.00000  -0.39543
   15 N1      .YZ       0.02565  -0.02565  -0.00021   0.00021   0.00000
   16 C2      .S       -0.00678   0.01024   0.00493  -0.00664  -0.00000
   17 C2      .S       -0.34356   0.01300   0.07036   0.00338   0.00000
   18 C2      .X       -0.00000   0.00000  -0.00000   0.00000   0.02196
   19 C2      .Y        0.41812   0.08060  -0.09652  -0.01674   0.00000
   20 C2      .Z       -0.58036  -0.02127   0.06174  -0.05045  -0.00000
   21 C2      .S        1.17093  -0.54190  -1.04083   0.13034   0.00000
   22 C2      .X        0.00000   0.00000   0.00000  -0.00000   0.37674
   23 C2      .Y       -2.57966   0.47697  -1.24989   0.35132  -0.00000
   24 C2      .Z        2.42302  -0.33759   1.22074  -0.45047   0.00000
   25 C2      .XX       0.07812  -0.02472  -0.03692   0.00631  -0.00000
   26 C2      .YY      -0.01683  -0.02692  -0.04557   0.00443  -0.00000
   27 C2      .ZZ       0.02585  -0.01912  -0.04718   0.00410  -0.00000
   28 C2      .XY      -0.00000   0.00000   0.00000   0.00000   0.04193
   29 C2      .XZ      -0.00000   0.00000   0.00000   0.00000  -0.01390
   30 C2      .YZ      -0.23090  -0.00001  -0.01628   0.00089   0.00000
   31 C3      .S        0.01024  -0.00678  -0.00664   0.00493   0.00000
   32 C3      .S        0.01300  -0.34356   0.00338   0.07036   0.00000
   33 C3      .X       -0.00000  -0.00000   0.00000   0.00000   0.02196
   34 C3      .Y       -0.08060  -0.41812   0.01674   0.09652   0.00000
   35 C3      .Z       -0.02127  -0.58036  -0.05045   0.06174   0.00000
   36 C3      .S       -0.54190   1.17093   0.13034  -1.04083  -0.00000
   37 C3      .X       -0.00000   0.00000  -0.00000   0.00000   0.37674
   38 C3      .Y       -0.47697   2.57966  -0.35132   1.24989  -0.00000
   39 C3      .Z       -0.33759   2.42302  -0.45047   1.22074   0.00000
   40 C3      .XX      -0.02472   0.07812   0.00631  -0.03692   0.00000
   41 C3      .YY      -0.02692  -0.01683   0.00443  -0.04557  -0.00000
   42 C3      .ZZ      -0.01912   0.02585   0.00410  -0.04718  -0.00000
   43 C3      .XY      -0.00000   0.00000  -0.00000  -0.00000  -0.04193
   44 C3      .XZ       0.00000  -0.00000   0.00000   0.00000  -0.01390
   45 C3      .YZ       0.00001   0.23090  -0.00089   0.01628  -0.00000
   46 C4      .S        0.00495   0.00191  -0.00030  -0.00425   0.00000
   47 C4      .S        0.03967   0.02531   0.15492  -0.08100   0.00000
   48 C4      .X       -0.00000   0.00000   0.00000  -0.00000  -0.00487
   49 C4      .Y        0.07455  -0.08164  -0.74654  -0.13093   0.00000
   50 C4      .Z       -0.00544   0.00395  -0.31377  -0.06695  -0.00000
   51 C4      .S        0.12332   0.99559  -0.59013   2.33012  -0.00000
   52 C4      .X       -0.00000  -0.00000   0.00000   0.00000  -0.07375
   53 C4      .Y        1.79381  -0.64710   3.84825  -1.54889   0.00000
   54 C4      .Z       -0.06386  -0.15189   1.00266  -0.65870  -0.00000
   55 C4      .XX       0.00463   0.02960  -0.05175   0.06441   0.00000
   56 C4      .YY      -0.00039   0.02811  -0.16190   0.09932  -0.00000
   57 C4      .ZZ       0.05848   0.02846   0.03947   0.06271   0.00000
   58 C4      .XY      -0.00000  -0.00000   0.00000   0.00000   0.00114
   59 C4      .XZ       0.00000   0.00000   0.00000   0.00000   0.00428
   60 C4      .YZ      -0.01140   0.00560  -0.03194   0.00522   0.00000
   61 C5      .S        0.00191   0.00495  -0.00425  -0.00030  -0.00000
   62 C5      .S        0.02531   0.03967  -0.08100   0.15492  -0.00000
   63 C5      .X        0.00000  -0.00000  -0.00000   0.00000  -0.00487
   64 C5      .Y        0.08164  -0.07455   0.13093   0.74654  -0.00000
   65 C5      .Z        0.00395  -0.00544  -0.06695  -0.31377   0.00000
   66 C5      .S        0.99559   0.12332   2.33012  -0.59013   0.00000
   67 C5      .X        0.00000   0.00000   0.00000   0.00000  -0.07375
   68 C5      .Y        0.64710  -1.79381   1.54889  -3.84825   0.00000
   69 C5      .Z       -0.15189  -0.06386  -0.65870   1.00266   0.00000
   70 C5      .XX       0.02960   0.00463   0.06441  -0.05175  -0.00000
   71 C5      .YY       0.02811  -0.00039   0.09932  -0.16190   0.00000
   72 C5      .ZZ       0.02846   0.05848   0.06271   0.03947   0.00000
   73 C5      .XY       0.00000  -0.00000  -0.00000  -0.00000  -0.00114
   74 C5      .XZ      -0.00000  -0.00000  -0.00000  -0.00000   0.00428
   75 C5      .YZ      -0.00560   0.01140  -0.00522   0.03194  -0.00000
   76 H6      .S        0.06170   0.06170   0.03387   0.03387   0.00000
   77 H6      .S       -0.07547  -0.07547   0.00324   0.00324  -0.00000
   78 H7      .S        0.21103  -0.02169   0.18235  -0.01428  -0.00000
   79 H7      .S        0.41620  -0.06336   0.29400  -0.04549   0.00000
   80 H8      .S       -0.02169   0.21103  -0.01428   0.18235   0.00000
   81 H8      .S       -0.06336   0.41620  -0.04549   0.29400  -0.00000
   82 H9      .S       -0.19128  -0.02572  -0.20701  -0.09546  -0.00000
   83 H9      .S       -0.35852   0.00670  -0.64320   0.00933  -0.00000
   84 H10     .S       -0.02572  -0.19128  -0.09546  -0.20701   0.00000
   85 H10     .S        0.00670  -0.35852   0.00933  -0.64320   0.00000
                          41        42        43        44        45
                           V         V         V         V         V    
     Eigenvalues --    28.51753  28.51753  29.88372  29.88372  30.06528
    1 N1      .S        0.05225   0.05225  -0.00000  -0.00000  -0.00000
    2 N1      .S        0.09604   0.09604   0.00000   0.00000  -0.00000
    3 N1      .X       -0.00000   0.00000   0.03061   0.03061  -0.01277
    4 N1      .Y       -0.03970   0.03970  -0.00000   0.00000  -0.00000
    5 N1      .Z       -0.01934  -0.01934   0.00000   0.00000   0.00000
    6 N1      .S       -1.69814  -1.69814   0.00000  -0.00000   0.00000
    7 N1      .X        0.00000  -0.00000   0.10299   0.10299   0.01869
    8 N1      .Y       -0.45526   0.45526   0.00000  -0.00000  -0.00000
    9 N1      .Z        0.69160   0.69160  -0.00000   0.00000  -0.00000
   10 N1      .XX       0.07749   0.07749  -0.00000   0.00000   0.00000
   11 N1      .YY       0.15514   0.15514  -0.00000  -0.00000  -0.00000
   12 N1      .ZZ       0.06627   0.06627  -0.00000  -0.00000   0.00000
   13 N1      .XY       0.00000  -0.00000   0.08158  -0.08158   0.00049
   14 N1      .XZ      -0.00000   0.00000   0.05914   0.05914  -0.00652
   15 N1      .YZ      -0.03700   0.03700  -0.00000   0.00000   0.00000
   16 C2      .S       -0.09845   0.01572   0.00000   0.00000   0.00000
   17 C2      .S       -1.76664   0.11659  -0.00000  -0.00000  -0.00000
   18 C2      .X        0.00000   0.00000  -0.01002   0.81785  -0.01536
   19 C2      .Y       -0.20681  -0.04562  -0.00000  -0.00000   0.00000
   20 C2      .Z       -0.03759   0.05250  -0.00000  -0.00000   0.00000
   21 C2      .S        6.80435  -0.51034  -0.00000   0.00000  -0.00000
   22 C2      .X        0.00000  -0.00000   0.08413  -1.16770   0.24430
   23 C2      .Y       -1.00548   0.25935   0.00000  -0.00000   0.00000
   24 C2      .Z       -1.22217   0.23308   0.00000   0.00000   0.00000
   25 C2      .XX      -0.08440  -0.00992   0.00000   0.00000   0.00000
   26 C2      .YY       0.02740  -0.00467  -0.00000   0.00000   0.00000
   27 C2      .ZZ      -0.25403  -0.02014   0.00000   0.00000   0.00000
   28 C2      .XY       0.00000  -0.00000  -0.00873  -0.41949   0.03086
   29 C2      .XZ      -0.00000  -0.00000  -0.00121   0.46570   0.09412
   30 C2      .YZ       0.29750   0.00232   0.00000  -0.00000  -0.00000
   31 C3      .S        0.01572  -0.09845  -0.00000   0.00000   0.00000
   32 C3      .S        0.11659  -1.76664   0.00000  -0.00000   0.00000
   33 C3      .X       -0.00000   0.00000   0.81785  -0.01002  -0.00016
   34 C3      .Y        0.04562   0.20681  -0.00000   0.00000  -0.00000
   35 C3      .Z        0.05250  -0.03759  -0.00000   0.00000  -0.00000
   36 C3      .S       -0.51034   6.80435   0.00000  -0.00000  -0.00000
   37 C3      .X       -0.00000   0.00000  -1.16770   0.08413  -0.10092
   38 C3      .Y       -0.25935   1.00548   0.00000  -0.00000  -0.00000
   39 C3      .Z        0.23308  -1.22217  -0.00000   0.00000   0.00000
   40 C3      .XX      -0.00992  -0.08440  -0.00000   0.00000  -0.00000
   41 C3      .YY      -0.00467   0.02740  -0.00000   0.00000   0.00000
   42 C3      .ZZ      -0.02014  -0.25403  -0.00000   0.00000  -0.00000
   43 C3      .XY      -0.00000   0.00000   0.41949   0.00873  -0.00483
   44 C3      .XZ      -0.00000  -0.00000   0.46570  -0.00121  -0.00279
   45 C3      .YZ      -0.00232  -0.29750  -0.00000   0.00000   0.00000
   46 C4      .S        0.03893   0.00592  -0.00000   0.00000  -0.00000
   47 C4      .S        0.33143  -0.02731  -0.00000   0.00000  -0.00000
   48 C4      .X       -0.00000   0.00000   0.00225   0.05595   0.81874
   49 C4      .Y       -0.03086  -0.06036   0.00000  -0.00000   0.00000
   50 C4      .Z       -0.08451   0.00258  -0.00000   0.00000  -0.00000
   51 C4      .S       -3.55961   0.85177   0.00000  -0.00000   0.00000
   52 C4      .X       -0.00000   0.00000  -0.11504   0.44067  -1.21825
   53 C4      .Y       -0.00468  -0.24670  -0.00000   0.00000   0.00000
   54 C4      .Z       -2.26704   0.76173   0.00000  -0.00000   0.00000
   55 C4      .XX      -0.05603   0.02168   0.00000   0.00000  -0.00000
   56 C4      .YY      -0.03885   0.02196   0.00000  -0.00000   0.00000
   57 C4      .ZZ      -0.07761   0.02318  -0.00000  -0.00000  -0.00000
   58 C4      .XY      -0.00000  -0.00000  -0.00165   0.02821   0.29770
   59 C4      .XZ       0.00000   0.00000  -0.00523   0.04055   0.53541
   60 C4      .YZ       0.04208  -0.00879   0.00000  -0.00000  -0.00000
   61 C5      .S        0.00592   0.03893   0.00000  -0.00000  -0.00000
   62 C5      .S       -0.02731   0.33143   0.00000  -0.00000   0.00000
   63 C5      .X        0.00000  -0.00000   0.05595   0.00225   0.05214
   64 C5      .Y        0.06036   0.03086  -0.00000   0.00000  -0.00000
   65 C5      .Z        0.00258  -0.08451   0.00000  -0.00000   0.00000
   66 C5      .S        0.85177  -3.55961  -0.00000   0.00000   0.00000
   67 C5      .X        0.00000  -0.00000   0.44067  -0.11504   0.42503
   68 C5      .Y        0.24670   0.00468  -0.00000   0.00000   0.00000
   69 C5      .Z        0.76173  -2.26704  -0.00000   0.00000   0.00000
   70 C5      .XX       0.02168  -0.05603   0.00000  -0.00000  -0.00000
   71 C5      .YY       0.02196  -0.03885   0.00000  -0.00000  -0.00000
   72 C5      .ZZ       0.02318  -0.07761   0.00000   0.00000  -0.00000
   73 C5      .XY      -0.00000  -0.00000  -0.02821   0.00165   0.03822
   74 C5      .XZ       0.00000  -0.00000   0.04055  -0.00523  -0.01182
   75 C5      .YZ       0.00879  -0.04208   0.00000  -0.00000  -0.00000
   76 H6      .S       -0.02495  -0.02495  -0.00000   0.00000  -0.00000
   77 H6      .S       -0.10841  -0.10841   0.00000  -0.00000   0.00000
   78 H7      .S       -0.30504  -0.02506   0.00000   0.00000  -0.00000
   79 H7      .S       -0.59834  -0.11498  -0.00000   0.00000   0.00000
   80 H8      .S       -0.02506  -0.30504  -0.00000  -0.00000  -0.00000
   81 H8      .S       -0.11498  -0.59834   0.00000   0.00000  -0.00000
   82 H9      .S       -0.00948   0.04512   0.00000  -0.00000  -0.00000
   83 H9      .S       -0.45015   0.18826   0.00000  -0.00000   0.00000
   84 H10     .S        0.04512  -0.00948  -0.00000  -0.00000   0.00000
   85 H10     .S        0.18826  -0.45015   0.00000   0.00000  -0.00000
                          46        47        48        49        50
                           V         V         V         V         V    
     Eigenvalues --    30.06528  31.53707  34.64069  34.64069  36.82617
    1 N1      .S        0.00000   0.00000   0.03058   0.03058  -0.01371
    2 N1      .S       -0.00000  -0.00000  -0.01137  -0.01137   0.02443
    3 N1      .X       -0.01277  -0.00000   0.00000   0.00000  -0.00000
    4 N1      .Y        0.00000   0.79376   0.08336  -0.08336  -0.07388
    5 N1      .Z       -0.00000   0.00000   0.09872   0.09872   0.02604
    6 N1      .S       -0.00000  -0.00000  -1.57500  -1.57500   0.92905
    7 N1      .X        0.01869   0.00000  -0.00000   0.00000   0.00000
    8 N1      .Y        0.00000  -4.17011  -0.15440   0.15440  -0.25715
    9 N1      .Z        0.00000   0.00000   1.21283   1.21283  -0.25790
   10 N1      .XX       0.00000  -0.00000   0.03334   0.03334  -0.03424
   11 N1      .YY       0.00000   0.00000  -0.02055  -0.02055  -0.01864
   12 N1      .ZZ       0.00000  -0.00000   0.09006   0.09006  -0.03775
   13 N1      .XY      -0.00049   0.00000  -0.00000   0.00000  -0.00000
   14 N1      .XZ      -0.00652  -0.00000   0.00000  -0.00000   0.00000
   15 N1      .YZ       0.00000   0.39290  -0.00264   0.00264  -0.00410
   16 C2      .S       -0.00000   0.01927   0.03194  -0.03292   0.02177
   17 C2      .S        0.00000   0.00502   0.22798  -0.73166  -0.00866
   18 C2      .X       -0.00016  -0.00000   0.00000   0.00000   0.00000
   19 C2      .Y        0.00000  -0.21419  -0.06673   0.53002   0.05191
   20 C2      .Z        0.00000   0.24212   0.12052   0.44519  -0.14831
   21 C2      .S       -0.00000   2.17790  -0.28049   3.44960   1.34183
   22 C2      .X       -0.10092   0.00000   0.00000   0.00000   0.00000
   23 C2      .Y        0.00000  -0.90082   0.45081  -4.58368  -0.26018
   24 C2      .Z        0.00000   1.80091   0.34966  -3.35012  -0.35253
   25 C2      .XX      -0.00000   0.09402   0.00904   0.16003   0.05758
   26 C2      .YY      -0.00000   0.17554  -0.00673  -0.23048   0.05130
   27 C2      .ZZ      -0.00000   0.12219   0.01994   0.39166   0.06177
   28 C2      .XY       0.00483   0.00000  -0.00000   0.00000  -0.00000
   29 C2      .XZ      -0.00279   0.00000  -0.00000   0.00000   0.00000
   30 C2      .YZ      -0.00000  -0.05355  -0.00431  -0.26213  -0.00824
   31 C3      .S        0.00000  -0.01927  -0.03292   0.03194  -0.01529
   32 C3      .S       -0.00000  -0.00502  -0.73166   0.22798   0.20893
   33 C3      .X       -0.01536  -0.00000   0.00000  -0.00000  -0.00000
   34 C3      .Y       -0.00000  -0.21419  -0.53002   0.06673  -0.11016
   35 C3      .Z       -0.00000  -0.24212   0.44519   0.12052   0.23437
   36 C3      .S        0.00000  -2.17790   3.44960  -0.28049  -4.17828
   37 C3      .X        0.24430  -0.00000   0.00000  -0.00000  -0.00000
   38 C3      .Y        0.00000  -0.90082   4.58368  -0.45081  -2.35363
   39 C3      .Z       -0.00000  -1.80091  -3.35012   0.34966   1.46837
   40 C3      .XX       0.00000  -0.09402   0.16003   0.00904  -0.17721
   41 C3      .YY       0.00000  -0.17554  -0.23048  -0.00673  -0.14406
   42 C3      .ZZ       0.00000  -0.12219   0.39166   0.01994  -0.23020
   43 C3      .XY      -0.03086   0.00000   0.00000  -0.00000   0.00000
   44 C3      .XZ       0.09412   0.00000   0.00000  -0.00000   0.00000
   45 C3      .YZ      -0.00000  -0.05355   0.26213   0.00431  -0.02671
   46 C4      .S       -0.00000   0.00664   0.01689   0.00541   0.00884
   47 C4      .S        0.00000   0.09655   0.02642   0.19212   0.16616
   48 C4      .X        0.05214  -0.00000   0.00000  -0.00000  -0.00000
   49 C4      .Y       -0.00000   0.02481  -0.06262  -0.08309   0.21232
   50 C4      .Z        0.00000   0.04184  -0.05200  -0.21766  -0.05024
   51 C4      .S        0.00000  -0.38689   1.17374  -4.31010  -3.41699
   52 C4      .X        0.42503  -0.00000  -0.00000  -0.00000   0.00000
   53 C4      .Y       -0.00000   1.12194  -0.31959   0.84009   1.56901
   54 C4      .Z        0.00000  -0.04494   0.38849  -2.40403  -2.25784
   55 C4      .XX      -0.00000   0.00649   0.03013  -0.11800  -0.09571
   56 C4      .YY       0.00000  -0.00318   0.02972  -0.13818  -0.10191
   57 C4      .ZZ       0.00000  -0.00303   0.03194  -0.11106  -0.08120
   58 C4      .XY      -0.03822   0.00000  -0.00000   0.00000   0.00000
   59 C4      .XZ      -0.01182  -0.00000  -0.00000  -0.00000   0.00000
   60 C4      .YZ      -0.00000   0.00261   0.01261  -0.06388  -0.04500
   61 C5      .S        0.00000  -0.00664   0.00541   0.01689  -0.05057
   62 C5      .S       -0.00000  -0.09655   0.19212   0.02642  -1.04047
   63 C5      .X        0.81874   0.00000  -0.00000   0.00000   0.00000
   64 C5      .Y        0.00000   0.02481   0.08309   0.06262  -0.30619
   65 C5      .Z       -0.00000  -0.04184  -0.21766  -0.05200  -0.64448
   66 C5      .S       -0.00000   0.38689  -4.31010   1.17374   4.95984
   67 C5      .X       -1.21825   0.00000  -0.00000   0.00000   0.00000
   68 C5      .Y       -0.00000   1.12194  -0.84009   0.31959   3.12050
   69 C5      .Z       -0.00000   0.04494  -2.40403   0.38849   5.58075
   70 C5      .XX       0.00000  -0.00649  -0.11800   0.03013   0.18957
   71 C5      .YY       0.00000   0.00318  -0.13818   0.02972   0.15794
   72 C5      .ZZ      -0.00000   0.00303  -0.11106   0.03194   0.05045
   73 C5      .XY      -0.29770   0.00000  -0.00000   0.00000   0.00000
   74 C5      .XZ       0.53541   0.00000  -0.00000   0.00000   0.00000
   75 C5      .YZ      -0.00000   0.00261   0.06388  -0.01261  -0.36106
   76 H6      .S        0.00000  -0.00000  -0.18106  -0.18106  -0.02013
   77 H6      .S       -0.00000  -0.00000  -0.14220  -0.14220  -0.00968
   78 H7      .S        0.00000  -0.18106  -0.07760   0.80901  -0.05496
   79 H7      .S       -0.00000  -0.16208  -0.23565   2.17519  -0.00418
   80 H8      .S       -0.00000   0.18106   0.80901  -0.07760  -0.16125
   81 H8      .S        0.00000   0.16208   2.17519  -0.23565  -0.73175
   82 H9      .S        0.00000  -0.06623  -0.02420  -0.12353  -0.22882
   83 H9      .S       -0.00000  -0.22480   0.05572  -0.58612  -0.75756
   84 H10     .S       -0.00000   0.06623  -0.12353  -0.02420   0.81017
   85 H10     .S       -0.00000   0.22480  -0.58612   0.05572   2.31112
                          51        52        53        54        55
                           V         V         V         V         V    
     Eigenvalues --    36.82617  38.90968  38.90968  39.42848  45.71040
    1 N1      .S       -0.01371   0.00305   0.00305  -0.12334  -0.00000
    2 N1      .S        0.02443   0.02830   0.02830  -1.19858   0.00000
    3 N1      .X       -0.00000   0.00000  -0.00000  -0.00000  -0.03438
    4 N1      .Y        0.07388   0.04434  -0.04434   0.00000  -0.00000
    5 N1      .Z        0.02604  -0.03198  -0.03198  -0.27077   0.00000
    6 N1      .S        0.92905   0.11324   0.11324   5.03033  -0.00000
    7 N1      .X        0.00000  -0.00000   0.00000   0.00000  -0.34380
    8 N1      .Y        0.25715   0.12458  -0.12458  -0.00000   0.00000
    9 N1      .Z       -0.25790  -0.16131  -0.16131  -0.04672   0.00000
   10 N1      .XX      -0.03424   0.01346   0.01346   0.17560  -0.00000
   11 N1      .YY      -0.01864  -0.00710  -0.00710  -0.25861  -0.00000
   12 N1      .ZZ      -0.03775   0.01953   0.01953  -0.94083  -0.00000
   13 N1      .XY      -0.00000  -0.00000   0.00000  -0.00000  -0.08911
   14 N1      .XZ       0.00000  -0.00000  -0.00000  -0.00000   0.04100
   15 N1      .YZ       0.00410  -0.00495   0.00495   0.00000   0.00000
   16 C2      .S       -0.01529   0.01984   0.00854   0.01807   0.00000
   17 C2      .S        0.20893   0.26044  -0.05982   0.18386  -0.00000
   18 C2      .X        0.00000   0.00000  -0.00000   0.00000  -0.47539
   19 C2      .Y        0.11016   0.03730  -0.00911  -0.01729  -0.00000
   20 C2      .Z        0.23437   0.05417  -0.07170  -0.08400  -0.00000
   21 C2      .S       -4.17828  -2.38745   0.68241  -1.61588  -0.00000
   22 C2      .X       -0.00000  -0.00000  -0.00000  -0.00000   0.70588
   23 C2      .Y        2.35363   1.16905  -0.63947   1.07101   0.00000
   24 C2      .Z        1.46837   1.21356  -0.06167  -0.46368   0.00000
   25 C2      .XX      -0.17721  -0.08389   0.02976  -0.06326   0.00000
   26 C2      .YY      -0.14406  -0.12297   0.04346   0.05501   0.00000
   27 C2      .ZZ      -0.23020  -0.01056   0.02632  -0.05557   0.00000
   28 C2      .XY       0.00000  -0.00000  -0.00000   0.00000  -0.09503
   29 C2      .XZ      -0.00000   0.00000  -0.00000   0.00000   0.94158
   30 C2      .YZ       0.02671  -0.03020   0.01230   0.00032   0.00000
   31 C3      .S        0.02177   0.00854   0.01984   0.01807  -0.00000
   32 C3      .S       -0.00866  -0.05982   0.26044   0.18386  -0.00000
   33 C3      .X        0.00000   0.00000  -0.00000  -0.00000  -0.00794
   34 C3      .Y       -0.05191   0.00911  -0.03730   0.01729   0.00000
   35 C3      .Z       -0.14831  -0.07170   0.05417  -0.08400  -0.00000
   36 C3      .S        1.34183   0.68241  -2.38745  -1.61588   0.00000
   37 C3      .X        0.00000   0.00000  -0.00000   0.00000   0.10361
   38 C3      .Y        0.26018   0.63947  -1.16905  -1.07101   0.00000
   39 C3      .Z       -0.35253  -0.06167   1.21356  -0.46368  -0.00000
   40 C3      .XX       0.05758   0.02976  -0.08389  -0.06326  -0.00000
   41 C3      .YY       0.05130   0.04346  -0.12297   0.05501   0.00000
   42 C3      .ZZ       0.06177   0.02632  -0.01056  -0.05557   0.00000
   43 C3      .XY      -0.00000  -0.00000   0.00000  -0.00000   0.00614
   44 C3      .XZ       0.00000  -0.00000   0.00000  -0.00000  -0.00645
   45 C3      .YZ       0.00824  -0.01230   0.03020  -0.00032  -0.00000
   46 C4      .S       -0.05057  -0.01090   0.03292  -0.00767  -0.00000
   47 C4      .S       -1.04047  -2.38820   0.26132  -0.07797  -0.00000
   48 C4      .X        0.00000  -0.00000  -0.00000   0.00000   0.05687
   49 C4      .Y        0.30619  -0.09743   0.15709   0.06632   0.00000
   50 C4      .Z       -0.64448   0.16464  -0.01014   0.00069  -0.00000
   51 C4      .S        4.95984   6.67143  -2.85936   0.15885   0.00000
   52 C4      .X        0.00000   0.00000   0.00000   0.00000  -0.04522
   53 C4      .Y       -3.12050  -1.16882   1.82405  -0.43364  -0.00000
   54 C4      .Z        5.58075   1.04955  -0.75190   0.41423   0.00000
   55 C4      .XX       0.18957   0.22060  -0.06022  -0.01890   0.00000
   56 C4      .YY       0.15794   0.35476  -0.10243  -0.00288  -0.00000
   57 C4      .ZZ       0.05045   0.31672  -0.07746  -0.01946  -0.00000
   58 C4      .XY       0.00000   0.00000  -0.00000  -0.00000   0.04686
   59 C4      .XZ       0.00000  -0.00000  -0.00000  -0.00000   0.13261
   60 C4      .YZ       0.36106  -0.50516   0.06132   0.00563   0.00000
   61 C5      .S        0.00884   0.03292  -0.01090  -0.00767   0.00000
   62 C5      .S        0.16616   0.26132  -2.38820  -0.07797   0.00000
   63 C5      .X       -0.00000  -0.00000   0.00000   0.00000   0.01268
   64 C5      .Y       -0.21232  -0.15709   0.09743  -0.06632   0.00000
   65 C5      .Z       -0.05024  -0.01014   0.16464   0.00069   0.00000
   66 C5      .S       -3.41699  -2.85936   6.67143   0.15885  -0.00000
   67 C5      .X       -0.00000  -0.00000   0.00000  -0.00000  -0.07651
   68 C5      .Y       -1.56901  -1.82405   1.16882   0.43364  -0.00000
   69 C5      .Z       -2.25784  -0.75190   1.04955   0.41423  -0.00000
   70 C5      .XX      -0.09571  -0.06022   0.22060  -0.01890   0.00000
   71 C5      .YY      -0.10191  -0.10243   0.35476  -0.00288   0.00000
   72 C5      .ZZ      -0.08120  -0.07746   0.31672  -0.01946  -0.00000
   73 C5      .XY       0.00000   0.00000   0.00000   0.00000  -0.00460
   74 C5      .XZ      -0.00000  -0.00000  -0.00000  -0.00000  -0.00815
   75 C5      .YZ       0.04500  -0.06132   0.50516  -0.00563  -0.00000
   76 H6      .S       -0.02013   0.01409   0.01409  -0.04027  -0.00000
   77 H6      .S       -0.00968  -0.01277  -0.01277  -0.77162  -0.00000
   78 H7      .S       -0.16125  -0.04816   0.02767  -0.00657  -0.00000
   79 H7      .S       -0.73175  -0.43093   0.15584  -0.10846  -0.00000
   80 H8      .S       -0.05496   0.02767  -0.04816  -0.00657   0.00000
   81 H8      .S       -0.00418   0.15584  -0.43093  -0.10846   0.00000
   82 H9      .S        0.81017  -0.41831  -0.03007   0.06999   0.00000
   83 H9      .S        2.31112  -0.39555  -0.46553   0.22205   0.00000
   84 H10     .S       -0.22882  -0.03007  -0.41831   0.06999  -0.00000
   85 H10     .S       -0.75756  -0.46553  -0.39555   0.22205  -0.00000
                          56        57        58        59        60
                           V         V         V         V         V    
     Eigenvalues --    45.71040  46.76143  46.76143  47.94112  49.70561
    1 N1      .S        0.00000  -0.00000   0.00000  -0.00000   0.00000
    2 N1      .S       -0.00000   0.00000  -0.00000   0.00000  -0.00000
    3 N1      .X       -0.03438   0.01525  -0.01525   0.40322   0.00881
    4 N1      .Y       -0.00000   0.00000  -0.00000   0.00000   0.00000
    5 N1      .Z        0.00000   0.00000  -0.00000  -0.00000  -0.00000
    6 N1      .S        0.00000  -0.00000  -0.00000   0.00000  -0.00000
    7 N1      .X       -0.34380  -0.11580   0.11580  -0.78328   0.05710
    8 N1      .Y       -0.00000   0.00000   0.00000  -0.00000  -0.00000
    9 N1      .Z       -0.00000  -0.00000   0.00000  -0.00000   0.00000
   10 N1      .XX       0.00000  -0.00000   0.00000  -0.00000   0.00000
   11 N1      .YY      -0.00000  -0.00000   0.00000  -0.00000   0.00000
   12 N1      .ZZ       0.00000   0.00000   0.00000  -0.00000   0.00000
   13 N1      .XY       0.08911  -0.00546  -0.00546  -0.00000   0.00899
   14 N1      .XZ       0.04100   0.00609  -0.00609   0.97774  -0.00774
   15 N1      .YZ       0.00000   0.00000   0.00000  -0.00000  -0.00000
   16 C2      .S        0.00000   0.00000   0.00000  -0.00000  -0.00000
   17 C2      .S       -0.00000  -0.00000  -0.00000   0.00000   0.00000
   18 C2      .X       -0.00794  -0.00729  -0.07354   0.08094  -0.07654
   19 C2      .Y       -0.00000  -0.00000  -0.00000   0.00000  -0.00000
   20 C2      .Z        0.00000   0.00000   0.00000  -0.00000   0.00000
   21 C2      .S        0.00000  -0.00000   0.00000   0.00000   0.00000
   22 C2      .X        0.10361   0.07282  -0.32588   0.32797  -0.34399
   23 C2      .Y       -0.00000   0.00000  -0.00000   0.00000  -0.00000
   24 C2      .Z       -0.00000   0.00000  -0.00000  -0.00000  -0.00000
   25 C2      .XX      -0.00000   0.00000   0.00000   0.00000  -0.00000
   26 C2      .YY       0.00000   0.00000   0.00000  -0.00000  -0.00000
   27 C2      .ZZ       0.00000   0.00000   0.00000  -0.00000  -0.00000
   28 C2      .XY      -0.00614  -0.01038   0.00950  -0.10367   0.06403
   29 C2      .XZ      -0.00645  -0.00243   0.09363   0.03438   0.10347
   30 C2      .YZ      -0.00000  -0.00000   0.00000   0.00000  -0.00000
   31 C3      .S       -0.00000  -0.00000  -0.00000   0.00000  -0.00000
   32 C3      .S        0.00000   0.00000   0.00000   0.00000   0.00000
   33 C3      .X       -0.47539   0.07354   0.00729   0.08094   0.01779
   34 C3      .Y       -0.00000  -0.00000  -0.00000   0.00000   0.00000
   35 C3      .Z        0.00000  -0.00000   0.00000  -0.00000   0.00000
   36 C3      .S       -0.00000   0.00000   0.00000  -0.00000   0.00000
   37 C3      .X        0.70588   0.32588  -0.07282   0.32797   0.03871
   38 C3      .Y       -0.00000   0.00000   0.00000  -0.00000  -0.00000
   39 C3      .Z        0.00000  -0.00000  -0.00000   0.00000  -0.00000
   40 C3      .XX      -0.00000  -0.00000  -0.00000   0.00000   0.00000
   41 C3      .YY      -0.00000  -0.00000  -0.00000   0.00000  -0.00000
   42 C3      .ZZ      -0.00000  -0.00000  -0.00000  -0.00000  -0.00000
   43 C3      .XY       0.09503   0.00950  -0.01038   0.10367   0.00261
   44 C3      .XZ       0.94158  -0.09363   0.00243   0.03438  -0.01046
   45 C3      .YZ       0.00000   0.00000   0.00000  -0.00000   0.00000
   46 C4      .S        0.00000   0.00000   0.00000   0.00000   0.00000
   47 C4      .S        0.00000  -0.00000  -0.00000   0.00000  -0.00000
   48 C4      .X        0.01268  -0.03546  -0.46558  -0.02132  -0.36835
   49 C4      .Y       -0.00000  -0.00000   0.00000   0.00000   0.00000
   50 C4      .Z       -0.00000  -0.00000   0.00000   0.00000   0.00000
   51 C4      .S       -0.00000  -0.00000  -0.00000  -0.00000  -0.00000
   52 C4      .X       -0.07651   0.00949   0.67013  -0.05333   0.75118
   53 C4      .Y        0.00000  -0.00000   0.00000  -0.00000  -0.00000
   54 C4      .Z       -0.00000   0.00000   0.00000  -0.00000   0.00000
   55 C4      .XX       0.00000   0.00000   0.00000   0.00000   0.00000
   56 C4      .YY       0.00000   0.00000   0.00000  -0.00000   0.00000
   57 C4      .ZZ      -0.00000   0.00000   0.00000   0.00000   0.00000
   58 C4      .XY       0.00460   0.12594   0.88412  -0.00283  -0.50733
   59 C4      .XZ      -0.00815   0.00175   0.34444  -0.01059   0.85583
   60 C4      .YZ       0.00000   0.00000   0.00000   0.00000  -0.00000
   61 C5      .S       -0.00000   0.00000   0.00000   0.00000   0.00000
   62 C5      .S        0.00000   0.00000  -0.00000  -0.00000  -0.00000
   63 C5      .X        0.05687   0.46558   0.03546  -0.02132  -0.04617
   64 C5      .Y       -0.00000  -0.00000  -0.00000  -0.00000  -0.00000
   65 C5      .Z        0.00000   0.00000   0.00000   0.00000   0.00000
   66 C5      .S        0.00000  -0.00000  -0.00000   0.00000  -0.00000
   67 C5      .X       -0.04522  -0.67013  -0.00949  -0.05333  -0.30922
   68 C5      .Y        0.00000  -0.00000   0.00000   0.00000   0.00000
   69 C5      .Z        0.00000  -0.00000  -0.00000   0.00000  -0.00000
[...]
   73 C5      .XY      -0.00000   0.00000   0.00000   0.00000   0.00000
   74 C5      .XZ      -0.00000  -0.00000  -0.00000   0.00000   0.00000
   75 C5      .YZ       0.02328  -0.73009   0.08771  -0.02514  -0.16678
   76 H6      .S       -0.36687   0.08175   0.08175  -0.21145  -0.05569
   77 H6      .S        0.45437   0.12899   0.12899  -0.06455  -0.05497
   78 H7      .S       -0.10147   0.00965   0.02081   0.05352  -0.02565
   79 H7      .S       -0.64248  -0.06984  -0.02622  -0.08674   0.03611
   80 H8      .S       -0.10147   0.02081   0.00965   0.05352   0.14215
   81 H8      .S       -0.64248  -0.02622  -0.06984  -0.08674   0.12813
   82 H9      .S       -0.00004   0.02873   0.19266   0.03303  -0.03953
   83 H9      .S        0.04575   0.35312  -1.01249  -0.00037  -0.08703
   84 H10     .S       -0.00004   0.19266   0.02873   0.03303  -0.04417
   85 H10     .S        0.04575  -1.01249   0.35312  -0.00037   0.02655
                          71        72        73        74        75
                           V         V         V         V         V    
     Eigenvalues --  27211.395227211.395227211.395227211.395227211.3952
    1 N1      .S       -0.01243   0.00479   0.00479   0.00000   0.02013
    2 N1      .S       -0.05455   0.01882   0.01882   0.00000   0.08124
    3 N1      .X       -0.00000   0.00000  -0.00000  -0.00000   0.00000
    4 N1      .Y        0.15479   0.03077  -0.03077  -0.28682   0.20347
    5 N1      .Z       -0.08424  -0.00588  -0.00588  -0.00000   0.14685
    6 N1      .S        0.68268   0.00178   0.00178  -0.00000  -1.24250
    7 N1      .X        0.00000  -0.00000   0.00000   0.00000   0.00000
    8 N1      .Y        0.78840   0.17633  -0.17633  -0.95451   0.76618
    9 N1      .Z       -0.10194  -0.06263  -0.06263   0.00000   0.66190
   10 N1      .XX      -0.02787   0.01435   0.01435   0.00000   0.02423
   11 N1      .YY       0.21651   0.02732   0.02732   0.00000  -0.18444
   12 N1      .ZZ       0.00075  -0.01592  -0.01592   0.00000  -0.09649
   13 N1      .XY      -0.00000   0.00000   0.00000  -0.00000   0.00000
   14 N1      .XZ      -0.00000  -0.00000   0.00000   0.00000   0.00000
   15 N1      .YZ      -0.09262  -0.01457   0.01457   1.37655  -0.21370
   16 C2      .S       -0.03431   0.00546   0.00100   0.01253  -0.00027
   17 C2      .S        1.14429   0.17296  -0.02590  -0.00842  -0.02605
   18 C2      .X        0.00000   0.00000  -0.00000  -0.00000  -0.00000
   19 C2      .Y        0.26490   0.00281   0.01754  -0.37569  -0.04244
   20 C2      .Z        0.15633   0.29502  -0.06082   0.18499   0.00906
   21 C2      .S       -2.55882  -2.28884   0.65011   1.17337   0.31182
   22 C2      .X       -0.00000  -0.00000  -0.00000   0.00000   0.00000
   23 C2      .Y        0.46264   0.86400  -0.59621  -0.91018  -0.29694
   24 C2      .Z        0.19145   0.97353  -0.06938  -0.07916  -0.41577
   25 C2      .XX       0.54007  -0.02175   0.00922   0.04347   0.01655
   26 C2      .YY      -0.27399  -0.04295  -0.00005   0.32907   0.03075
   27 C2      .ZZ      -1.48046  -0.26152   0.02689   0.14216   0.02091
   28 C2      .XY      -0.00000   0.00000   0.00000  -0.00000   0.00000
   29 C2      .XZ       0.00000   0.00000   0.00000  -0.00000  -0.00000
   30 C2      .YZ       0.26456   0.01564  -0.01063  -0.18761   0.00883
   31 C3      .S       -0.00696   0.00100   0.00546  -0.01253  -0.10394
   32 C3      .S       -0.05446  -0.02590   0.17296   0.00842   0.41754
   33 C3      .X       -0.00000   0.00000   0.00000   0.00000   0.00000
   34 C3      .Y       -0.00905  -0.01754  -0.00281  -0.37569   0.22838
   35 C3      .Z       -0.02080  -0.06082   0.29502  -0.18499   0.33340
   36 C3      .S        0.60394   0.65011  -2.28884  -1.17337   1.53429
   37 C3      .X        0.00000   0.00000  -0.00000  -0.00000  -0.00000
   38 C3      .Y        0.27397   0.59621  -0.86400  -0.91018   0.37366
   39 C3      .Z        0.13999  -0.06938   0.97353   0.07916   0.81671
   40 C3      .XX      -0.01246   0.00922  -0.02175  -0.04347  -0.49667
   41 C3      .YY       0.01181  -0.00005  -0.04295  -0.32907   0.24547
   42 C3      .ZZ      -0.01532   0.02689  -0.26152  -0.14216  -0.90216
   43 C3      .XY      -0.00000  -0.00000  -0.00000  -0.00000  -0.00000
   44 C3      .XZ       0.00000  -0.00000   0.00000   0.00000   0.00000
   45 C3      .YZ      -0.01399   0.01063  -0.01564  -0.18761   1.13085
   46 C4      .S        0.00183  -0.17733   0.01813   0.01443   0.00308
   47 C4      .S       -0.03800  -0.31128   0.22814   0.12252   0.03486
   48 C4      .X        0.00000  -0.00000   0.00000  -0.00000   0.00000
   49 C4      .Y        0.19042  -0.10366   0.31957  -0.00497   0.01803
   50 C4      .Z        0.40746   0.15700   0.06084  -0.03141  -0.02552
   51 C4      .S        1.18878   5.16261  -2.63938  -1.40744  -0.44106
   52 C4      .X        0.00000   0.00000   0.00000  -0.00000  -0.00000
   53 C4      .Y        0.15302  -1.26731   1.49559   0.76798  -0.01499
   54 C4      .Z        0.62730   1.41307  -0.60555  -0.69571  -0.30663
   55 C4      .XX       0.02884  -1.28421  -0.01459   0.00007  -0.01283
   56 C4      .YY       0.13220   0.43289  -0.29196  -0.03379  -0.01759
   57 C4      .ZZ       0.30854  -0.12463  -0.05739  -0.03327  -0.02653
   58 C4      .XY       0.00000  -0.00000  -0.00000  -0.00000  -0.00000
   59 C4      .XZ       0.00000   0.00000  -0.00000  -0.00000  -0.00000
   60 C4      .YZ       0.16678   0.58070  -0.05975   0.00916   0.01211
   61 C5      .S        0.00004   0.01813  -0.17733  -0.01443   0.01761
   62 C5      .S        0.01089   0.22814  -0.31128  -0.12252   0.08008
   63 C5      .X       -0.00000  -0.00000   0.00000   0.00000   0.00000
   64 C5      .Y       -0.01320  -0.31957   0.10366  -0.00497  -0.04512
   65 C5      .Z        0.00350   0.06084   0.15700   0.03141   0.40967
   66 C5      .S       -0.15614  -2.63938   5.16261   1.40744   0.02227
   67 C5      .X       -0.00000   0.00000   0.00000   0.00000   0.00000
   68 C5      .Y       -0.15077  -1.49559   1.26731   0.76798  -0.00099
   69 C5      .Z       -0.25978  -0.60555   1.41307   0.69571   0.21293
   70 C5      .XX      -0.00534  -0.01459  -1.28421  -0.00007   0.05717
   71 C5      .YY      -0.02084  -0.29196   0.43289   0.03379   0.04011
   72 C5      .ZZ      -0.00227  -0.05739  -0.12463   0.03327   0.39083
   73 C5      .XY       0.00000   0.00000  -0.00000  -0.00000  -0.00000
   74 C5      .XZ       0.00000   0.00000  -0.00000  -0.00000   0.00000
   75 C5      .YZ       0.01351   0.05975  -0.58070   0.00916  -0.05695
   76 H6      .S       -0.05569   0.02694   0.02694  -0.00000   0.02407
   77 H6      .S       -0.05497  -0.03406  -0.03406  -0.00000  -0.24731
   78 H7      .S        0.14215   0.00379   0.04018   0.01852   0.03396
   79 H7      .S        0.12813  -0.22718   0.15661   0.30866   0.16121
   80 H8      .S       -0.02565   0.04018   0.00379  -0.01852   0.07236
   81 H8      .S        0.03611   0.15661  -0.22718  -0.30866  -0.32878
   82 H9      .S       -0.04417  -0.01124   0.00634  -0.04082  -0.00241
   83 H9      .S        0.02655   0.11490  -0.29093  -0.29135  -0.05579
   84 H10     .S       -0.03953   0.00634  -0.01124   0.04082  -0.00444
   85 H10     .S       -0.08703  -0.29093   0.11490   0.29135   0.16917
                          76        77        78        79        80
                           V         V         V         V         V    
     Eigenvalues --  27211.395227211.395227211.395227211.395227211.3952
    1 N1      .S        0.02013   0.05669   0.05669   0.00359   0.00359
    2 N1      .S        0.08124   0.22312   0.22312   0.00861   0.00861
    3 N1      .X        0.00000  -0.00000   0.00000   0.00000   0.00000
    4 N1      .Y       -0.20347   0.01903  -0.01903   0.01539  -0.01539
    5 N1      .Z        0.14685  -0.04132  -0.04132   0.04020   0.04020
    6 N1      .S       -1.24250  -2.45366  -2.45366  -0.29896  -0.29896
    7 N1      .X       -0.00000   0.00000  -0.00000   0.00000  -0.00000
    8 N1      .Y       -0.76618  -0.29257   0.29257  -0.13054   0.13054
    9 N1      .Z        0.66190   1.33258   1.33258   0.12404   0.12404
   10 N1      .XX       0.02423   0.14856   0.14856  -0.00819  -0.00819
   11 N1      .YY      -0.18444   0.19257   0.19257  -0.00385  -0.00385
   12 N1      .ZZ      -0.09649   0.03705   0.03705  -0.03215  -0.03215
   13 N1      .XY      -0.00000  -0.00000  -0.00000   0.00000  -0.00000
   14 N1      .XZ       0.00000   0.00000   0.00000   0.00000  -0.00000
   15 N1      .YZ       0.21370   0.01207  -0.01207  -0.00693   0.00693
   16 C2      .S       -0.10394  -0.30670   0.02970  -0.00580   0.01766
   17 C2      .S        0.41754   1.35657   0.16679  -0.04844   0.05730
   18 C2      .X       -0.00000   0.00000   0.00000  -0.00000   0.00000
   19 C2      .Y       -0.22838   0.30051  -0.12365   0.01258  -0.23703
   20 C2      .Z        0.33340   0.07810   0.07158   0.01415  -0.49248
   21 C2      .S        1.53429   4.36760  -0.22760   0.26251   0.52464
   22 C2      .X        0.00000   0.00000  -0.00000  -0.00000   0.00000
   23 C2      .Y       -0.37366  -3.39722   0.27527  -0.48114  -0.21427
   24 C2      .Z        0.81671  -1.43242   0.30108  -0.02949  -0.41790
   25 C2      .XX      -0.49667  -1.65956   0.04641  -0.00703   0.06016
   26 C2      .YY       0.24547  -0.24519   0.04994   0.01035   0.15814
   27 C2      .ZZ      -0.90216  -0.97788   0.00488   0.00279   0.41798
   28 C2      .XY      -0.00000  -0.00000   0.00000   0.00000   0.00000
   29 C2      .XZ      -0.00000   0.00000   0.00000   0.00000  -0.00000
   30 C2      .YZ      -1.13085   0.45603   0.00305  -0.00560   0.19958
   31 C3      .S       -0.00027   0.02970  -0.30670   0.01766  -0.00580
   32 C3      .S       -0.02605   0.16679   1.35657   0.05730  -0.04844
   33 C3      .X        0.00000   0.00000   0.00000   0.00000  -0.00000
   34 C3      .Y        0.04244   0.12365  -0.30051   0.23703  -0.01258
   35 C3      .Z        0.00906   0.07158   0.07810  -0.49248   0.01415
   36 C3      .S        0.31182  -0.22760   4.36760   0.52464   0.26251
   37 C3      .X       -0.00000  -0.00000   0.00000  -0.00000   0.00000
   38 C3      .Y        0.29694  -0.27527   3.39722   0.21427   0.48114
   39 C3      .Z       -0.41577   0.30108  -1.43242  -0.41790  -0.02949
   40 C3      .XX       0.01655   0.04641  -1.65956   0.06016  -0.00703
   41 C3      .YY       0.03075   0.04994  -0.24519   0.15814   0.01035
   42 C3      .ZZ       0.02091   0.00488  -0.97788   0.41798   0.00279
   43 C3      .XY       0.00000   0.00000  -0.00000  -0.00000  -0.00000
   44 C3      .XZ       0.00000   0.00000  -0.00000   0.00000  -0.00000
   45 C3      .YZ      -0.00883  -0.00305  -0.45603  -0.19958   0.00560
   46 C4      .S        0.01761   0.02044   0.00517   0.00521  -0.18982
   47 C4      .S        0.08008   0.27816  -0.02157   0.08493   1.28667
   48 C4      .X       -0.00000   0.00000  -0.00000  -0.00000  -0.00000
   49 C4      .Y        0.04512   0.02311  -0.11706   0.13266  -0.20602
   50 C4      .Z        0.40967  -0.07422  -0.00926   0.00142  -0.13953
   51 C4      .S        0.02227  -3.65672   1.56653  -0.95718   0.72792
   52 C4      .X       -0.00000  -0.00000   0.00000   0.00000   0.00000
   53 C4      .Y        0.00099   1.27173  -0.56022   0.61209  -0.52804
   54 C4      .Z        0.21293  -2.18055   0.50027   0.06844  -0.98076
   55 C4      .XX       0.05717   0.02545   0.03569  -0.01939  -0.36090
   56 C4      .YY       0.04011   0.00546   0.04660  -0.15516  -0.13616
   57 C4      .ZZ       0.39083  -0.10240   0.03433   0.01318  -2.04494
   58 C4      .XY       0.00000  -0.00000  -0.00000   0.00000   0.00000
   59 C4      .XZ      -0.00000   0.00000   0.00000   0.00000  -0.00000
   60 C4      .YZ       0.05695   0.07357  -0.01807  -0.00845  -0.09678
   61 C5      .S        0.00308   0.00517   0.02044  -0.18982   0.00521
   62 C5      .S        0.03486  -0.02157   0.27816   1.28667   0.08493
   63 C5      .X        0.00000   0.00000  -0.00000  -0.00000   0.00000
   64 C5      .Y       -0.01803   0.11706  -0.02311   0.20602  -0.13266
   65 C5      .Z       -0.02552  -0.00926  -0.07422  -0.13953   0.00142
   66 C5      .S       -0.44106   1.56653  -3.65672   0.72792  -0.95718
   67 C5      .X       -0.00000  -0.00000   0.00000  -0.00000  -0.00000
   68 C5      .Y        0.01499   0.56022  -1.27173   0.52804  -0.61209
   69 C5      .Z       -0.30663   0.50027  -2.18055  -0.98076   0.06844
   70 C5      .XX      -0.01283   0.03569   0.02545  -0.36090  -0.01939
   71 C5      .YY      -0.01759   0.04660   0.00546  -0.13616  -0.15516
   72 C5      .ZZ      -0.02653   0.03433  -0.10240  -2.04494   0.01318
   73 C5      .XY      -0.00000   0.00000  -0.00000  -0.00000   0.00000
   74 C5      .XZ      -0.00000  -0.00000   0.00000  -0.00000   0.00000
   75 C5      .YZ      -0.01211   0.01807  -0.07357   0.09678   0.00845
   76 H6      .S        0.02407  -0.07253  -0.07253   0.00139   0.00139
   77 H6      .S       -0.24731  -0.31639  -0.31639   0.00545   0.00545
   78 H7      .S        0.07236  -0.04656  -0.04311   0.03729  -0.02967
   79 H7      .S       -0.32878   1.19530  -0.16676   0.17835   0.19196
   80 H8      .S        0.03396  -0.04311  -0.04656  -0.02967   0.03729
   81 H8      .S        0.16121  -0.16676   1.19530   0.19196   0.17835
   82 H9      .S       -0.00444  -0.07946  -0.00341   0.02865   0.21978
   83 H9      .S        0.16917  -0.75250   0.11962  -0.06762  -0.49218
   84 H10     .S       -0.00241  -0.00341  -0.07946   0.21978   0.02865
   85 H10     .S       -0.05579   0.11962  -0.75250  -0.49218  -0.06762
                          81        82        83        84        85
                           V         V         V         V         V    
     Eigenvalues --  27211.395227211.395227211.395227211.395227211.3952
    1 N1      .S       -0.00935  -0.00935  -0.01116  -0.01116  -0.52163
    2 N1      .S       -0.00033  -0.00033   0.00603   0.00603   0.82212
    3 N1      .X       -0.00000  -0.00000   0.00000  -0.00000  -0.00000
    4 N1      .Y        0.04656  -0.04656  -0.14172   0.14172   0.00000
    5 N1      .Z       -0.01735  -0.01735  -0.12176  -0.12176   0.17381
    6 N1      .S        0.68562   0.68562   0.46534   0.46534   4.99428
    7 N1      .X       -0.00000   0.00000  -0.00000   0.00000   0.00000
    8 N1      .Y        0.23672  -0.23672   0.06391  -0.06391  -0.00000
    9 N1      .Z       -0.22787  -0.22787  -0.75680  -0.75680  -0.92025
   10 N1      .XX      -0.00508  -0.00508  -0.01260  -0.01260  -1.67890
   11 N1      .YY      -0.03336  -0.03336   0.09340   0.09340  -1.81257
   12 N1      .ZZ      -0.00842  -0.00842   0.17695   0.17695  -1.49007
   13 N1      .XY      -0.00000   0.00000  -0.00000  -0.00000  -0.00000
   14 N1      .XZ       0.00000  -0.00000   0.00000  -0.00000  -0.00000
   15 N1      .YZ      -0.01141   0.01141   0.12393  -0.12393   0.00000
   16 C2      .S        0.00923   0.00477  -0.00417  -0.37239  -0.00736
   17 C2      .S        0.25941  -0.03055   0.04757   2.41301   0.06471
   18 C2      .X       -0.00000  -0.00000   0.00000  -0.00000  -0.00000
   19 C2      .Y        0.02606   0.00688   0.06208  -0.05922  -0.08945
   20 C2      .Z       -0.07757  -0.08781  -0.00464  -0.12413   0.08967
   21 C2      .S       -2.98011   1.12702  -0.97549   1.68609  -1.41343
   22 C2      .X        0.00000   0.00000   0.00000   0.00000  -0.00000
   23 C2      .Y        1.72042  -0.43225   0.52437   0.88267   0.75653
   24 C2      .Z        1.08895  -0.30003   0.31359  -0.18432  -0.11845
   25 C2      .XX       0.00155   0.02702  -0.02115  -1.17956  -0.01177
   26 C2      .YY      -0.07855   0.01983  -0.07110  -2.25912   0.09554
   27 C2      .ZZ       0.06876   0.01466  -0.02678  -1.16418   0.07407
   28 C2      .XY      -0.00000  -0.00000  -0.00000  -0.00000   0.00000
   29 C2      .XZ       0.00000   0.00000  -0.00000   0.00000   0.00000
   30 C2      .YZ      -0.06028   0.00938  -0.00459  -0.09694  -0.11255
   31 C3      .S        0.00477   0.00923  -0.37239  -0.00417  -0.00736
   32 C3      .S       -0.03055   0.25941   2.41301   0.04757   0.06471
   33 C3      .X        0.00000  -0.00000   0.00000  -0.00000  -0.00000
   34 C3      .Y       -0.00688  -0.02606   0.05922  -0.06208   0.08945
   35 C3      .Z       -0.08781  -0.07757  -0.12413  -0.00464   0.08967
   36 C3      .S        1.12702  -2.98011   1.68609  -0.97549  -1.41343
   37 C3      .X        0.00000  -0.00000   0.00000  -0.00000   0.00000
   38 C3      .Y        0.43225  -1.72042  -0.88267  -0.52437  -0.75653
   39 C3      .Z       -0.30003   1.08895  -0.18432   0.31359  -0.11845
   40 C3      .XX       0.02702   0.00155  -1.17956  -0.02115  -0.01177
   41 C3      .YY       0.01983  -0.07855  -2.25912  -0.07110   0.09554
   42 C3      .ZZ       0.01466   0.06876  -1.16418  -0.02678   0.07407
   43 C3      .XY       0.00000   0.00000  -0.00000  -0.00000  -0.00000
   44 C3      .XZ       0.00000  -0.00000  -0.00000  -0.00000  -0.00000
   45 C3      .YZ      -0.00938   0.06028   0.09694   0.00459   0.11255
   46 C4      .S       -0.42691   0.02108  -0.01499   0.01689   0.00824
   47 C4      .S        2.06978   0.21921  -0.09112   0.14942   0.04508
   48 C4      .X        0.00000  -0.00000   0.00000  -0.00000   0.00000
   49 C4      .Y        0.21295  -0.16996   0.04904  -0.01305   0.01721
   50 C4      .Z       -0.22684  -0.01552  -0.02885   0.15383   0.03367
   51 C4      .S        4.89521  -2.77318   0.80763  -1.12206   0.29679
   52 C4      .X        0.00000   0.00000  -0.00000  -0.00000   0.00000
   53 C4      .Y       -1.60951   1.28684  -0.30082  -0.24115  -0.00535
   54 C4      .Z        2.57248  -1.41699   0.77212  -0.54017   0.06103
   55 C4      .XX      -1.72383   0.04217  -0.02562   0.04330   0.01700
   56 C4      .YY      -1.71812   0.18098  -0.02820   0.03169  -0.00249
   57 C4      .ZZ      -1.03916   0.00230  -0.01187   0.11237  -0.01432
   58 C4      .XY       0.00000  -0.00000  -0.00000   0.00000   0.00000
   59 C4      .XZ       0.00000   0.00000  -0.00000   0.00000   0.00000
   60 C4      .YZ      -0.51913   0.07152   0.02001  -0.05407   0.00441
   61 C5      .S        0.02108  -0.42691   0.01689  -0.01499   0.00824
   62 C5      .S        0.21921   2.06978   0.14942  -0.09112   0.04508
   63 C5      .X       -0.00000   0.00000  -0.00000   0.00000   0.00000
   64 C5      .Y        0.16996  -0.21295   0.01305  -0.04904  -0.01721
   65 C5      .Z       -0.01552  -0.22684   0.15383  -0.02885   0.03367
   66 C5      .S       -2.77318   4.89521  -1.12206   0.80763   0.29679
   67 C5      .X       -0.00000  -0.00000  -0.00000   0.00000  -0.00000
   68 C5      .Y       -1.28684   1.60951   0.24115   0.30082   0.00535
   69 C5      .Z       -1.41699   2.57248  -0.54017   0.77212   0.06103
   70 C5      .XX       0.04217  -1.72383   0.04330  -0.02562   0.01700
   71 C5      .YY       0.18098  -1.71812   0.03169  -0.02820  -0.00249
   72 C5      .ZZ       0.00230  -1.03916   0.11237  -0.01187  -0.01432
   73 C5      .XY       0.00000   0.00000  -0.00000   0.00000   0.00000
   74 C5      .XZ      -0.00000   0.00000   0.00000  -0.00000   0.00000
   75 C5      .YZ      -0.07152   0.51913   0.05407  -0.02001  -0.00441
   76 H6      .S       -0.00413  -0.00413   0.06320   0.06320   0.15809
   77 H6      .S       -0.00798  -0.00798   0.32503   0.32503  -0.40266
   78 H7      .S       -0.04614  -0.00678  -0.00085   0.30199   0.00389
   79 H7      .S       -0.61702   0.07659  -0.16517  -0.85810  -0.10900
   80 H8      .S       -0.00678  -0.04614   0.30199  -0.00085   0.00389
   81 H8      .S        0.07659  -0.61702  -0.85810  -0.16517  -0.10900
   82 H9      .S        0.03858  -0.06760   0.05740   0.03337  -0.00579
   83 H9      .S        0.69260  -0.56247   0.27041   0.00482  -0.05855
   84 H10     .S       -0.06760   0.03858   0.03337   0.05740  -0.00579
   85 H10     .S       -0.56247   0.69260   0.00482   0.27041  -0.05855
