 Entering Gaussian System, Link 0=g09
 Initial command:
 /home/Andriy.Zhugayevych/local/gaussian/g09/l1.exe "/scr/82004.mgmt.skoltech.ru/pyrrole_molec_CAM-B3LYPp2p_mgf/Gau-5309.inp" -scrdir="/scr/82004.mgmt.skoltech.ru/pyrrole_molec_CAM-B3LYPp2p_mgf/"
 Entering Link 1 = /home/Andriy.Zhugayevych/local/gaussian/g09/l1.exe PID=      5311.
  
 Copyright (c) 1988,1990,1992,1993,1995,1998,2003,2009,2013,
            Gaussian, Inc.  All Rights Reserved.
  
 This is part of the Gaussian(R) 09 program.  It is based on
 the Gaussian(R) 03 system (copyright 2003, Gaussian, Inc.),
 the Gaussian(R) 98 system (copyright 1998, Gaussian, Inc.),
 the Gaussian(R) 94 system (copyright 1995, Gaussian, Inc.),
 the Gaussian 92(TM) system (copyright 1992, Gaussian, Inc.),
 the Gaussian 90(TM) system (copyright 1990, Gaussian, Inc.),
 the Gaussian 88(TM) system (copyright 1988, Gaussian, Inc.),
 the Gaussian 86(TM) system (copyright 1986, Carnegie Mellon
 University), and the Gaussian 82(TM) system (copyright 1983,
 Carnegie Mellon University). Gaussian is a federally registered
 trademark of Gaussian, Inc.
  
 This software contains proprietary and confidential information,
 including trade secrets, belonging to Gaussian, Inc.
  
 This software is provided under written license and may be
 used, copied, transmitted, or stored only in accord with that
 written license.
  
 The following legend is applicable only to US Government
 contracts under FAR:
  
                    RESTRICTED RIGHTS LEGEND
  
 Use, reproduction and disclosure by the US Government is
 subject to restrictions as set forth in subparagraphs (a)
 and (c) of the Commercial Computer Software - Restricted
 Rights clause in FAR 52.227-19.
  
 Gaussian, Inc.
 340 Quinnipiac St., Bldg. 40, Wallingford CT 06492
  
  
 ---------------------------------------------------------------
 Warning -- This program may not be used in any manner that
 competes with the business of Gaussian, Inc. or will provide
 assistance to any competitor of Gaussian, Inc.  The licensee
 of this program is prohibited from giving any competitor of
 Gaussian, Inc. access to this program.  By using this program,
 the user acknowledges that Gaussian, Inc. is engaged in the
 business of creating and licensing software in the field of
 computational chemistry and represents and warrants to the
 licensee that it is not a competitor of Gaussian, Inc. and that
 it will not use this program in any manner prohibited above.
 ---------------------------------------------------------------
  

 Cite this work as:
 Gaussian 09, Revision D.01,
 M. J. Frisch, G. W. Trucks, H. B. Schlegel, G. E. Scuseria, 
 M. A. Robb, J. R. Cheeseman, G. Scalmani, V. Barone, B. Mennucci, 
 G. A. Petersson, H. Nakatsuji, M. Caricato, X. Li, H. P. Hratchian, 
 A. F. Izmaylov, J. Bloino, G. Zheng, J. L. Sonnenberg, M. Hada, 
 M. Ehara, K. Toyota, R. Fukuda, J. Hasegawa, M. Ishida, T. Nakajima, 
 Y. Honda, O. Kitao, H. Nakai, T. Vreven, J. A. Montgomery, Jr., 
 J. E. Peralta, F. Ogliaro, M. Bearpark, J. J. Heyd, E. Brothers, 
 K. N. Kudin, V. N. Staroverov, T. Keith, R. Kobayashi, J. Normand, 
 K. Raghavachari, A. Rendell, J. C. Burant, S. S. Iyengar, J. Tomasi, 
 M. Cossi, N. Rega, J. M. Millam, M. Klene, J. E. Knox, J. B. Cross, 
 V. Bakken, C. Adamo, J. Jaramillo, R. Gomperts, R. E. Stratmann, 
 O. Yazyev, A. J. Austin, R. Cammi, C. Pomelli, J. W. Ochterski, 
 R. L. Martin, K. Morokuma, V. G. Zakrzewski, G. A. Voth, 
 P. Salvador, J. J. Dannenberg, S. Dapprich, A. D. Daniels, 
 O. Farkas, J. B. Foresman, J. V. Ortiz, J. Cioslowski, 
 and D. J. Fox, Gaussian, Inc., Wallingford CT, 2013.
 
 ******************************************
 Gaussian 09:  ES64L-G09RevD.01 24-Apr-2013
                 5-Oct-2016 
 ******************************************
 %nprocshared=8
 Will use up to    8 processors via shared memory.
 %mem=24GB
 ---------------------------------------------
 #T CAM-B3LYP 6-31G* gfprint pop(full) Density
 ---------------------------------------------


 Symbolic Z-matrix:
 Charge =  0 Multiplicity = 1
 N                     0.        1.13985   0. 
 C                     1.12023   0.35118   0. 
 C                    -1.12023   0.35118   0. 
 C                     0.71095  -0.95769   0. 
 C                    -0.71095  -0.95769   0. 
 H                     0.        2.14665   0. 
 H                     2.10865   0.78603   0. 
 H                    -2.10865   0.78603   0. 
 H                     1.3589   -1.82277   0. 
 H                    -1.3589   -1.82277   0. 
 
                    Distance matrix (angstroms):
                    1          2          3          4          5
     1  N    0.000000
     2  C    1.370005   0.000000
     3  C    1.370005   2.240452   0.000000
     4  C    2.214755   1.371367   2.250854   0.000000
     5  C    2.214755   2.250854   1.371367   1.421898   0.000000
     6  H    1.006797   2.116276   2.116276   3.184711   3.184711
     7  H    2.138128   1.079852   3.258027   2.234758   3.315224
     8  H    2.138128   3.258027   1.079852   3.315224   2.234758
     9  H    3.259410   2.187013   3.297291   1.080835   2.243355
    10  H    3.259410   3.297291   2.187013   2.243355   1.080835
                    6          7          8          9         10
     6  H    0.000000
     7  H    2.509519   0.000000
     8  H    2.509519   4.217300   0.000000
     9  H    4.195583   2.714403   4.339328   0.000000
    10  H    4.195583   4.339328   2.714403   2.717802   0.000000
 Framework group  C2V[C2(NH),SGV(C4H4)]
 Deg. of freedom     9
                         Standard orientation:                         
 ---------------------------------------------------------------------
 Center     Atomic      Atomic             Coordinates (Angstroms)
 Number     Number       Type             X           Y           Z
 ---------------------------------------------------------------------
      1          7           0        0.000000    0.000000    1.118353
      2          6           0        0.000000    1.120226    0.329679
      3          6           0        0.000000   -1.120226    0.329679
      4          6           0        0.000000    0.710949   -0.979191
      5          6           0        0.000000   -0.710949   -0.979191
      6          1           0        0.000000    0.000000    2.125150
      7          1           0        0.000000    2.108650    0.764533
      8          1           0        0.000000   -2.108650    0.764533
      9          1           0        0.000000    1.358901   -1.844271
     10          1           0        0.000000   -1.358901   -1.844271
 ---------------------------------------------------------------------
 Rotational constants (GHZ):      9.1999106      9.0700460      4.5672584
 AO basis set (Overlap normalization):
 Atom N1       Shell     1 S   6     bf    1 -     1          0.000000000000          0.000000000000          2.113380837399
      0.4173511460D+04  0.1834772160D-02
      0.6274579110D+03  0.1399462700D-01
      0.1429020930D+03  0.6858655181D-01
      0.4023432930D+02  0.2322408730D+00
      0.1282021290D+02  0.4690699481D+00
      0.4390437010D+01  0.3604551991D+00
 Atom N1       Shell     2 SP   3    bf    2 -     5          0.000000000000          0.000000000000          2.113380837399
      0.1162636186D+02 -0.1149611817D+00  0.6757974388D-01
      0.2716279807D+01 -0.1691174786D+00  0.3239072959D+00
      0.7722183966D+00  0.1145851947D+01  0.7408951398D+00
 Atom N1       Shell     3 SP   1    bf    6 -     9          0.000000000000          0.000000000000          2.113380837399
      0.2120314975D+00  0.1000000000D+01  0.1000000000D+01
 Atom N1       Shell     4 D   1     bf   10 -    15          0.000000000000          0.000000000000          2.113380837399
      0.8000000000D+00  0.1000000000D+01
 Atom C2       Shell     5 S   6     bf   16 -    16          0.000000000000          2.116920346938          0.623002969271
      0.3047524880D+04  0.1834737132D-02
      0.4573695180D+03  0.1403732281D-01
      0.1039486850D+03  0.6884262226D-01
      0.2921015530D+02  0.2321844432D+00
      0.9286662960D+01  0.4679413484D+00
      0.3163926960D+01  0.3623119853D+00
 Atom C2       Shell     6 SP   3    bf   17 -    20          0.000000000000          2.116920346938          0.623002969271
      0.7868272350D+01 -0.1193324198D+00  0.6899906659D-01
      0.1881288540D+01 -0.1608541517D+00  0.3164239610D+00
      0.5442492580D+00  0.1143456438D+01  0.7443082909D+00
 Atom C2       Shell     7 SP   1    bf   21 -    24          0.000000000000          2.116920346938          0.623002969271
      0.1687144782D+00  0.1000000000D+01  0.1000000000D+01
 Atom C2       Shell     8 D   1     bf   25 -    30          0.000000000000          2.116920346938          0.623002969271
      0.8000000000D+00  0.1000000000D+01
 Atom C3       Shell     9 S   6     bf   31 -    31          0.000000000000         -2.116920346938          0.623002969271
      0.3047524880D+04  0.1834737132D-02
      0.4573695180D+03  0.1403732281D-01
      0.1039486850D+03  0.6884262226D-01
      0.2921015530D+02  0.2321844432D+00
      0.9286662960D+01  0.4679413484D+00
      0.3163926960D+01  0.3623119853D+00
 Atom C3       Shell    10 SP   3    bf   32 -    35          0.000000000000         -2.116920346938          0.623002969271
      0.7868272350D+01 -0.1193324198D+00  0.6899906659D-01
      0.1881288540D+01 -0.1608541517D+00  0.3164239610D+00
      0.5442492580D+00  0.1143456438D+01  0.7443082909D+00
 Atom C3       Shell    11 SP   1    bf   36 -    39          0.000000000000         -2.116920346938          0.623002969271
      0.1687144782D+00  0.1000000000D+01  0.1000000000D+01
 Atom C3       Shell    12 D   1     bf   40 -    45          0.000000000000         -2.116920346938          0.623002969271
      0.8000000000D+00  0.1000000000D+01
 Atom C4       Shell    13 S   6     bf   46 -    46          0.000000000000          1.343498904449         -1.850402874279
      0.3047524880D+04  0.1834737132D-02
      0.4573695180D+03  0.1403732281D-01
      0.1039486850D+03  0.6884262226D-01
      0.2921015530D+02  0.2321844432D+00
      0.9286662960D+01  0.4679413484D+00
      0.3163926960D+01  0.3623119853D+00
 Atom C4       Shell    14 SP   3    bf   47 -    50          0.000000000000          1.343498904449         -1.850402874279
      0.7868272350D+01 -0.1193324198D+00  0.6899906659D-01
      0.1881288540D+01 -0.1608541517D+00  0.3164239610D+00
      0.5442492580D+00  0.1143456438D+01  0.7443082909D+00
 Atom C4       Shell    15 SP   1    bf   51 -    54          0.000000000000          1.343498904449         -1.850402874279
      0.1687144782D+00  0.1000000000D+01  0.1000000000D+01
 Atom C4       Shell    16 D   1     bf   55 -    60          0.000000000000          1.343498904449         -1.850402874279
      0.8000000000D+00  0.1000000000D+01
 Atom C5       Shell    17 S   6     bf   61 -    61          0.000000000000         -1.343498904449         -1.850402874279
      0.3047524880D+04  0.1834737132D-02
      0.4573695180D+03  0.1403732281D-01
      0.1039486850D+03  0.6884262226D-01
      0.2921015530D+02  0.2321844432D+00
      0.9286662960D+01  0.4679413484D+00
      0.3163926960D+01  0.3623119853D+00
 Atom C5       Shell    18 SP   3    bf   62 -    65          0.000000000000         -1.343498904449         -1.850402874279
      0.7868272350D+01 -0.1193324198D+00  0.6899906659D-01
      0.1881288540D+01 -0.1608541517D+00  0.3164239610D+00
      0.5442492580D+00  0.1143456438D+01  0.7443082909D+00
 Atom C5       Shell    19 SP   1    bf   66 -    69          0.000000000000         -1.343498904449         -1.850402874279
      0.1687144782D+00  0.1000000000D+01  0.1000000000D+01
 Atom C5       Shell    20 D   1     bf   70 -    75          0.000000000000         -1.343498904449         -1.850402874279
      0.8000000000D+00  0.1000000000D+01
 Atom H6       Shell    21 S   3     bf   76 -    76          0.000000000000          0.000000000000          4.015951438810
      0.1873113696D+02  0.3349460434D-01
      0.2825394365D+01  0.2347269535D+00
      0.6401216923D+00  0.8137573261D+00
 Atom H6       Shell    22 S   1     bf   77 -    77          0.000000000000          0.000000000000          4.015951438810
      0.1612777588D+00  0.1000000000D+01
 Atom H7       Shell    23 S   3     bf   78 -    78          0.000000000000          3.984771010109          1.444757937061
      0.1873113696D+02  0.3349460434D-01
      0.2825394365D+01  0.2347269535D+00
      0.6401216923D+00  0.8137573261D+00
 Atom H7       Shell    24 S   1     bf   79 -    79          0.000000000000          3.984771010109          1.444757937061
      0.1612777588D+00  0.1000000000D+01
 Atom H8       Shell    25 S   3     bf   80 -    80          0.000000000000         -3.984771010109          1.444757937061
      0.1873113696D+02  0.3349460434D-01
      0.2825394365D+01  0.2347269535D+00
      0.6401216923D+00  0.8137573261D+00
 Atom H8       Shell    26 S   1     bf   81 -    81          0.000000000000         -3.984771010109          1.444757937061
      0.1612777588D+00  0.1000000000D+01
 Atom H9       Shell    27 S   3     bf   82 -    82          0.000000000000          2.567950731704         -3.485167157316
      0.1873113696D+02  0.3349460434D-01
      0.2825394365D+01  0.2347269535D+00
      0.6401216923D+00  0.8137573261D+00
 Atom H9       Shell    28 S   1     bf   83 -    83          0.000000000000          2.567950731704         -3.485167157316
      0.1612777588D+00  0.1000000000D+01
 Atom H10      Shell    29 S   3     bf   84 -    84          0.000000000000         -2.567950731704         -3.485167157316
      0.1873113696D+02  0.3349460434D-01
      0.2825394365D+01  0.2347269535D+00
      0.6401216923D+00  0.8137573261D+00
 Atom H10      Shell    30 S   1     bf   85 -    85          0.000000000000         -2.567950731704         -3.485167157316
      0.1612777588D+00  0.1000000000D+01
    85 basis functions,   160 primitive gaussians,    85 cartesian basis functions
    18 alpha electrons       18 beta electrons
       nuclear repulsion energy       161.2887078344 Hartrees.
 NAtoms=   10 NActive=   10 NUniq=    6 SFac= 2.78D+00 NAtFMM=   60 NAOKFM=F Big=F
 ExpMin= 1.61D-01 ExpMax= 4.17D+03 ExpMxC= 6.27D+02 IAcc=1 IRadAn=         1 AccDes= 0.00D+00
 Harris functional with IExCor=20419 and IRadAn=       1 diagonalized for initial guess.
 HarFok:  IExCor=20419 AccDes= 0.00D+00 IRadAn=         1 IDoV= 1 UseB2=F ITyADJ=14
 ICtDFT=  3500011 ScaDFX=  1.000000  1.000000  1.000000  1.000000
 FoFCou: FMM=F IPFlag=           0 FMFlag=      100000 FMFlg1=           0
         NFxFlg=           0 DoJE=T BraDBF=F KetDBF=T FulRan=T
         wScrn=  0.000000 ICntrl=     500 IOpCl=  0 I1Cent=   200000004 NGrid=           0
         NMat0=    1 NMatS0=      1 NMatT0=    0 NMatD0=    1 NMtDS0=    0 NMtDT0=    0
 Petite list used in FoFCou.
 Initial guess orbital symmetries:
       Occupied  (A1) (A1) (B2) (B2) (A1) (A1) (A1) (B2) (A1) (B2)
                 (A1) (A1) (B2) (B2) (A1) (B1) (B1) (A2)
       Virtual   (B1) (A2) (A1) (A1) (B2) (B2) (A1) (B2) (A1) (A1)
                 (B2) (B2) (B1) (A1) (B2) (A1) (A2) (A1) (B1) (B2)
                 (A1) (A2) (B1) (B2) (A1) (B2) (A1) (B2) (B2) (A1)
                 (A1) (B2) (A1) (B2) (A1) (B1) (B1) (A2) (A1) (B2)
                 (A2) (B1) (A1) (A1) (A1) (B2) (B2) (A1) (A2) (B1)
                 (B2) (A1) (A2) (B1) (A2) (B2) (A1) (A1) (B2) (B2)
                 (B2) (A1) (A1) (A1) (B2) (A1) (B2)
 The electronic state of the initial guess is 1-A1.
 Integral accuracy reduced to 1.0D-05 until final iterations.
 Initial convergence to 1.0D-05 achieved.  Increase integral accuracy.
 SCF Done:  E(RCAM-B3LYP) =  -210.048250277     A.U. after   14 cycles
            NFock= 14  Conv=0.20D-08     -V/T= 2.0093

 **********************************************************************

            Population analysis using the SCF density.

 **********************************************************************

 Orbital symmetries:
       Occupied  (A1) (B2) (A1) (A1) (B2) (A1) (A1) (B2) (A1) (B2)
                 (A1) (A1) (B2) (B1) (B2) (A1) (B1) (A2)
       Virtual   (B1) (A1) (A2) (A1) (B2) (A1) (B2) (B2) (A1) (A1)
                 (B2) (B2) (A1) (B1) (A1) (A2) (B2) (A1) (B1) (B2)
                 (A1) (A2) (B1) (B2) (A1) (B2) (A1) (B2) (B2) (A1)
                 (A1) (B2) (A1) (B2) (A1) (B1) (A2) (B1) (A1) (B2)
                 (A2) (B1) (A1) (A1) (A1) (B2) (B2) (A1) (A2) (B1)
                 (B2) (A1) (A2) (B1) (A2) (A1) (B2) (B2) (A1) (B2)
                 (B2) (A1) (A1) (A1) (B2) (A1) (B2)
 The electronic state is 1-A1.
 Alpha  occ. eigenvalues --  -14.44493 -10.26840 -10.26838 -10.23087 -10.23041
 Alpha  occ. eigenvalues --   -1.04868  -0.84161  -0.78956  -0.65338  -0.62728
 Alpha  occ. eigenvalues --   -0.60771  -0.48638  -0.47879  -0.46694  -0.44363
 Alpha  occ. eigenvalues --   -0.42729  -0.29008  -0.25730
 Alpha virt. eigenvalues --    0.10540   0.13053   0.15405   0.19476   0.21822
 Alpha virt. eigenvalues --    0.22657   0.23731   0.30097   0.30414   0.39737
 Alpha virt. eigenvalues --    0.42798   0.52287   0.60395   0.61785   0.64988
 Alpha virt. eigenvalues --    0.66516   0.67612   0.68423   0.69576   0.70664
 Alpha virt. eigenvalues --    0.71710   0.76100   0.84261   0.88231   0.89864
 Alpha virt. eigenvalues --    0.92864   0.93377   0.98508   0.99803   1.00333
 Alpha virt. eigenvalues --    1.05701   1.21653   1.23728   1.32368   1.36293
 Alpha virt. eigenvalues --    1.41763   1.44665   1.47504   1.56882   1.57724
 Alpha virt. eigenvalues --    1.63156   1.63303   1.87090   1.96117   2.08188
 Alpha virt. eigenvalues --    2.09989   2.13586   2.19796   2.29627   2.32533
 Alpha virt. eigenvalues --    2.34041   2.34991   2.41755   2.42529   2.64759
 Alpha virt. eigenvalues --    2.68009   2.71689   2.77773   2.77927   3.05107
 Alpha virt. eigenvalues --    3.09741   3.11085   3.98955   4.20649   4.21541
 Alpha virt. eigenvalues --    4.42046   4.55164
     Molecular Orbital Coefficients:
                           1         2         3         4         5
                        (A1)--O   (B2)--O   (A1)--O   (A1)--O   (B2)--O
     Eigenvalues --   -14.44493 -10.26840 -10.26838 -10.23087 -10.23041
   1 1   N  1S          0.99264   0.00000  -0.00020   0.00008   0.00000
   2        2S          0.03483   0.00000   0.00023   0.00022   0.00000
   3        2PX         0.00000   0.00000   0.00000   0.00000   0.00000
   4        2PY         0.00000  -0.00015   0.00000   0.00000  -0.00003
   5        2PZ         0.00008   0.00000   0.00007  -0.00011   0.00000
   6        3S          0.00389   0.00000   0.00014  -0.00309   0.00000
   7        3PX         0.00000   0.00000   0.00000   0.00000   0.00000
   8        3PY         0.00000   0.00015   0.00000   0.00000  -0.00079
   9        3PZ         0.00031   0.00000   0.00243   0.00141   0.00000
  10        4XX        -0.00833   0.00000   0.00021   0.00015   0.00000
  11        4YY        -0.00842   0.00000  -0.00076   0.00016   0.00000
  12        4ZZ        -0.00833   0.00000  -0.00048   0.00023   0.00000
  13        4XY         0.00000   0.00000   0.00000   0.00000   0.00000
  14        4XZ         0.00000   0.00000   0.00000   0.00000   0.00000
  15        4YZ         0.00000   0.00037   0.00000   0.00000  -0.00001
  16 2   C  1S          0.00003   0.70197   0.70189  -0.00632  -0.00645
  17        2S          0.00019   0.03521   0.03463  -0.00074  -0.00066
  18        2PX         0.00000   0.00000   0.00000   0.00000   0.00000
  19        2PY        -0.00031  -0.00058  -0.00058   0.00005   0.00015
  20        2PZ         0.00021   0.00037   0.00049   0.00030   0.00012
  21        3S         -0.00017  -0.01158  -0.00629   0.00516   0.00685
  22        3PX         0.00000   0.00000   0.00000   0.00000   0.00000
  23        3PY        -0.00015   0.00294  -0.00141  -0.00198  -0.00249
  24        3PZ        -0.00028   0.00254  -0.00019  -0.00177  -0.00208
  25        4XX        -0.00002  -0.00676  -0.00697  -0.00007  -0.00006
  26        4YY         0.00011  -0.00648  -0.00625  -0.00004  -0.00017
  27        4ZZ         0.00008  -0.00661  -0.00654  -0.00018  -0.00027
  28        4XY         0.00000   0.00000   0.00000   0.00000   0.00000
  29        4XZ         0.00000   0.00000   0.00000   0.00000   0.00000
  30        4YZ        -0.00007  -0.00002  -0.00007  -0.00002  -0.00008
  31 3   C  1S          0.00003  -0.70197   0.70189  -0.00632   0.00645
  32        2S          0.00019  -0.03521   0.03463  -0.00074   0.00066
  33        2PX         0.00000   0.00000   0.00000   0.00000   0.00000
  34        2PY         0.00031  -0.00058   0.00058  -0.00005   0.00015
  35        2PZ         0.00021  -0.00037   0.00049   0.00030  -0.00012
  36        3S         -0.00017   0.01158  -0.00629   0.00516  -0.00685
  37        3PX         0.00000   0.00000   0.00000   0.00000   0.00000
  38        3PY         0.00015   0.00294   0.00141   0.00198  -0.00249
  39        3PZ        -0.00028  -0.00254  -0.00019  -0.00177   0.00208
  40        4XX        -0.00002   0.00676  -0.00697  -0.00007   0.00006
  41        4YY         0.00011   0.00648  -0.00625  -0.00004   0.00017
  42        4ZZ         0.00008   0.00661  -0.00654  -0.00018   0.00027
  43        4XY         0.00000   0.00000   0.00000   0.00000   0.00000
  44        4XZ         0.00000   0.00000   0.00000   0.00000   0.00000
  45        4YZ         0.00007  -0.00002   0.00007   0.00002  -0.00008
  46 4   C  1S          0.00000   0.00609   0.00601   0.70182   0.70211
  47        2S          0.00003  -0.00011  -0.00003   0.03501   0.03566
  48        2PX         0.00000   0.00000   0.00000   0.00000   0.00000
  49        2PY         0.00000  -0.00003  -0.00011   0.00003  -0.00028
  50        2PZ        -0.00006  -0.00019  -0.00027   0.00014   0.00030
  51        3S         -0.00021   0.00714   0.00161  -0.00831  -0.01839
  52        3PX         0.00000   0.00000   0.00000   0.00000   0.00000
  53        3PY         0.00004  -0.00048   0.00052  -0.00020   0.00430
  54        3PZ        -0.00015   0.00351   0.00050  -0.00187  -0.00400
  55        4XX        -0.00002  -0.00019  -0.00014  -0.00689  -0.00665
  56        4YY         0.00000  -0.00030  -0.00013  -0.00690  -0.00626
  57        4ZZ        -0.00007  -0.00026  -0.00029  -0.00666  -0.00630
  58        4XY         0.00000   0.00000   0.00000   0.00000   0.00000
  59        4XZ         0.00000   0.00000   0.00000   0.00000   0.00000
  60        4YZ         0.00000   0.00006  -0.00003  -0.00006  -0.00006
  61 5   C  1S          0.00000  -0.00609   0.00601   0.70182  -0.70211
  62        2S          0.00003   0.00011  -0.00003   0.03501  -0.03566
  63        2PX         0.00000   0.00000   0.00000   0.00000   0.00000
  64        2PY         0.00000  -0.00003   0.00011  -0.00003  -0.00028
  65        2PZ        -0.00006   0.00019  -0.00027   0.00014  -0.00030
  66        3S         -0.00021  -0.00714   0.00161  -0.00831   0.01839
  67        3PX         0.00000   0.00000   0.00000   0.00000   0.00000
  68        3PY        -0.00004  -0.00048  -0.00052   0.00020   0.00430
  69        3PZ        -0.00015  -0.00351   0.00050  -0.00187   0.00400
  70        4XX        -0.00002   0.00019  -0.00014  -0.00689   0.00665
  71        4YY         0.00000   0.00030  -0.00013  -0.00690   0.00626
  72        4ZZ        -0.00007   0.00026  -0.00029  -0.00666   0.00630
  73        4XY         0.00000   0.00000   0.00000   0.00000   0.00000
  74        4XZ         0.00000   0.00000   0.00000   0.00000   0.00000
  75        4YZ         0.00000   0.00006   0.00003   0.00006  -0.00006
  76 6   H  1S          0.00029   0.00000  -0.00033  -0.00009   0.00000
  77        2S         -0.00060   0.00000  -0.00084  -0.00014   0.00000
  78 7   H  1S          0.00001  -0.00046  -0.00023   0.00000   0.00002
  79        2S          0.00014   0.00030   0.00216   0.00056   0.00048
  80 8   H  1S          0.00001   0.00046  -0.00023   0.00000  -0.00002
  81        2S          0.00014  -0.00030   0.00216   0.00056  -0.00048
  82 9   H  1S          0.00000   0.00001  -0.00008  -0.00039  -0.00037
  83        2S         -0.00005   0.00050  -0.00008   0.00099   0.00025
  84 10  H  1S          0.00000  -0.00001  -0.00008  -0.00039   0.00037
  85        2S         -0.00005  -0.00050  -0.00008   0.00099  -0.00025
                           6         7         8         9        10
                        (A1)--O   (A1)--O   (B2)--O   (A1)--O   (B2)--O
     Eigenvalues --    -1.04868  -0.84161  -0.78956  -0.65338  -0.62728
   1 1   N  1S         -0.17441   0.09764   0.00000  -0.02939   0.00000
   2        2S          0.35661  -0.21376   0.00000   0.06504   0.00000
   3        2PX         0.00000   0.00000   0.00000   0.00000   0.00000
   4        2PY         0.00000   0.00000   0.22662   0.00000   0.27621
   5        2PZ        -0.05654  -0.12965   0.00000   0.35435   0.00000
   6        3S          0.38142  -0.23505   0.00000   0.07160   0.00000
   7        3PX         0.00000   0.00000   0.00000   0.00000   0.00000
   8        3PY         0.00000   0.00000   0.09998   0.00000   0.13564
   9        3PZ        -0.04159  -0.06612   0.00000   0.17448   0.00000
  10        4XX        -0.01900   0.00631   0.00000  -0.00224   0.00000
  11        4YY        -0.00074   0.00223   0.00000  -0.00865   0.00000
  12        4ZZ         0.01135  -0.00270   0.00000   0.01406   0.00000
  13        4XY         0.00000   0.00000   0.00000   0.00000   0.00000
  14        4XZ         0.00000   0.00000   0.00000   0.00000   0.00000
  15        4YZ         0.00000   0.00000  -0.01387   0.00000  -0.00230
  16 2   C  1S         -0.08765  -0.03868  -0.13721   0.06121  -0.02545
  17        2S          0.16673   0.07341   0.27605  -0.12718   0.05818
  18        2PX         0.00000   0.00000   0.00000   0.00000   0.00000
  19        2PY        -0.09931  -0.00591  -0.01227   0.05610  -0.02701
  20        2PZ         0.03210  -0.13177  -0.00162  -0.01413   0.22600
  21        3S          0.03713   0.05478   0.18881  -0.08603  -0.01372
  22        3PX         0.00000   0.00000   0.00000   0.00000   0.00000
  23        3PY         0.02943  -0.00255   0.02516  -0.00983   0.02826
  24        3PZ         0.00781  -0.01818   0.00063  -0.00745   0.07636
  25        4XX        -0.01230  -0.00405  -0.01489   0.00743  -0.00429
  26        4YY         0.01047  -0.00171  -0.00118  -0.01139   0.00691
  27        4ZZ        -0.00024   0.00170   0.00256   0.01311  -0.00561
  28        4XY         0.00000   0.00000   0.00000   0.00000   0.00000
  29        4XZ         0.00000   0.00000   0.00000   0.00000   0.00000
  30        4YZ        -0.00743   0.01450   0.00158  -0.00141  -0.00808
  31 3   C  1S         -0.08765  -0.03868   0.13721   0.06121   0.02545
  32        2S          0.16673   0.07341  -0.27605  -0.12718  -0.05818
  33        2PX         0.00000   0.00000   0.00000   0.00000   0.00000
  34        2PY         0.09931   0.00591  -0.01227  -0.05610  -0.02701
  35        2PZ         0.03210  -0.13177   0.00162  -0.01413  -0.22600
  36        3S          0.03713   0.05478  -0.18881  -0.08603   0.01372
  37        3PX         0.00000   0.00000   0.00000   0.00000   0.00000
  38        3PY        -0.02943   0.00255   0.02516   0.00983   0.02826
  39        3PZ         0.00781  -0.01818  -0.00063  -0.00745  -0.07636
  40        4XX        -0.01230  -0.00405   0.01489   0.00743   0.00429
  41        4YY         0.01047  -0.00171   0.00118  -0.01139  -0.00691
  42        4ZZ        -0.00024   0.00170  -0.00256   0.01311   0.00561
  43        4XY         0.00000   0.00000   0.00000   0.00000   0.00000
  44        4XZ         0.00000   0.00000   0.00000   0.00000   0.00000
  45        4YZ         0.00743  -0.01450   0.00158   0.00141  -0.00808
  46 4   C  1S         -0.04556  -0.12855  -0.06860  -0.07388   0.10024
  47        2S          0.08189   0.24572   0.13380   0.14908  -0.20707
  48        2PX         0.00000   0.00000   0.00000   0.00000   0.00000
  49        2PY        -0.02062  -0.06222   0.07242  -0.04743  -0.12885
  50        2PZ         0.04990   0.04131   0.07095  -0.15001   0.01494
  51        3S          0.06107   0.17445   0.11284   0.13531  -0.11252
  52        3PX         0.00000   0.00000   0.00000   0.00000   0.00000
  53        3PY        -0.00759  -0.00527   0.00878  -0.00315  -0.07044
  54        3PZ         0.01693  -0.00070   0.00658  -0.05060   0.05933
  55        4XX        -0.00616  -0.01420  -0.00688  -0.00611   0.00833
  56        4YY         0.00008   0.00546  -0.00826   0.00695   0.00832
  57        4ZZ         0.00524  -0.00028   0.00869  -0.00609  -0.00419
  58        4XY         0.00000   0.00000   0.00000   0.00000   0.00000
  59        4XZ         0.00000   0.00000   0.00000   0.00000   0.00000
  60        4YZ        -0.00217  -0.00449   0.00293  -0.00346   0.00623
  61 5   C  1S         -0.04556  -0.12855   0.06860  -0.07388  -0.10024
  62        2S          0.08189   0.24572  -0.13380   0.14908   0.20707
  63        2PX         0.00000   0.00000   0.00000   0.00000   0.00000
  64        2PY         0.02062   0.06222   0.07242   0.04743  -0.12885
  65        2PZ         0.04990   0.04131  -0.07095  -0.15001  -0.01494
  66        3S          0.06107   0.17445  -0.11284   0.13531   0.11252
  67        3PX         0.00000   0.00000   0.00000   0.00000   0.00000
  68        3PY         0.00759   0.00527   0.00878   0.00315  -0.07044
  69        3PZ         0.01693  -0.00070  -0.00658  -0.05060  -0.05933
  70        4XX        -0.00616  -0.01420   0.00688  -0.00611  -0.00833
  71        4YY         0.00008   0.00546   0.00826   0.00695  -0.00832
  72        4ZZ         0.00524  -0.00028  -0.00869  -0.00609   0.00419
  73        4XY         0.00000   0.00000   0.00000   0.00000   0.00000
  74        4XZ         0.00000   0.00000   0.00000   0.00000   0.00000
  75        4YZ         0.00217   0.00449   0.00293   0.00346   0.00623
  76 6   H  1S          0.08629  -0.12525   0.00000   0.21396   0.00000
  77        2S          0.00705  -0.01927   0.00000   0.09187   0.00000
  78 7   H  1S          0.02315   0.00666   0.09204  -0.03320   0.05335
  79        2S         -0.01097  -0.00034   0.02231  -0.00636   0.02136
  80 8   H  1S          0.02315   0.00666  -0.09204  -0.03320  -0.05335
  81        2S         -0.01097  -0.00034  -0.02231  -0.00636  -0.02136
  82 9   H  1S          0.00951   0.05770   0.04148   0.10204  -0.12729
  83        2S          0.00242   0.01031   0.01042   0.04868  -0.04917
  84 10  H  1S          0.00951   0.05770  -0.04148   0.10204   0.12729
  85        2S          0.00242   0.01031  -0.01042   0.04868   0.04917
                          11        12        13        14        15
                        (A1)--O   (A1)--O   (B2)--O   (B1)--O   (B2)--O
     Eigenvalues --    -0.60771  -0.48638  -0.47879  -0.46694  -0.44363
   1 1   N  1S          0.03802   0.02844   0.00000   0.00000   0.00000
   2        2S         -0.08764  -0.07747   0.00000   0.00000   0.00000
   3        2PX         0.00000   0.00000   0.00000   0.40899   0.00000
   4        2PY         0.00000   0.00000   0.33531   0.00000  -0.10671
   5        2PZ         0.14075   0.29473   0.00000   0.00000   0.00000
   6        3S         -0.10921  -0.07544   0.00000   0.00000   0.00000
   7        3PX         0.00000   0.00000   0.00000   0.27114   0.00000
   8        3PY         0.00000   0.00000   0.17884   0.00000  -0.07942
   9        3PZ         0.05456   0.10803   0.00000   0.00000   0.00000
  10        4XX         0.00246  -0.00292   0.00000   0.00000   0.00000
  11        4YY         0.01290  -0.01182   0.00000   0.00000   0.00000
  12        4ZZ        -0.00451   0.02447   0.00000   0.00000   0.00000
  13        4XY         0.00000   0.00000   0.00000   0.00000   0.00000
  14        4XZ         0.00000   0.00000   0.00000  -0.00945   0.00000
  15        4YZ         0.00000   0.00000  -0.00975   0.00000  -0.01019
  16 2   C  1S         -0.07523  -0.00658   0.01168   0.00000  -0.04003
  17        2S          0.15258   0.01319  -0.01137   0.00000   0.08586
  18        2PX         0.00000   0.00000   0.00000   0.23408   0.00000
  19        2PY         0.24807   0.02653  -0.32103   0.00000  -0.08207
  20        2PZ         0.01566  -0.21024   0.01538   0.00000  -0.23795
  21        3S          0.15532  -0.02367  -0.07148   0.00000   0.17288
  22        3PX         0.00000   0.00000   0.00000   0.11837   0.00000
  23        3PY         0.08229   0.02210  -0.07138   0.00000  -0.04664
  24        3PZ         0.02735  -0.04423   0.00937   0.00000  -0.10367
  25        4XX        -0.00499   0.00179  -0.00044   0.00000  -0.00172
  26        4YY        -0.00382  -0.01243  -0.01259   0.00000  -0.00781
  27        4ZZ         0.00066   0.00696   0.00796   0.00000  -0.00100
  28        4XY         0.00000   0.00000   0.00000  -0.01680   0.00000
  29        4XZ         0.00000   0.00000   0.00000   0.00382   0.00000
  30        4YZ         0.01095   0.01467  -0.02093   0.00000   0.00773
  31 3   C  1S         -0.07523  -0.00658  -0.01168   0.00000   0.04003
  32        2S          0.15258   0.01319   0.01137   0.00000  -0.08586
  33        2PX         0.00000   0.00000   0.00000   0.23408   0.00000
  34        2PY        -0.24807  -0.02653  -0.32103   0.00000  -0.08207
  35        2PZ         0.01566  -0.21024  -0.01538   0.00000   0.23795
  36        3S          0.15532  -0.02367   0.07148   0.00000  -0.17288
  37        3PX         0.00000   0.00000   0.00000   0.11837   0.00000
  38        3PY        -0.08229  -0.02210  -0.07138   0.00000  -0.04664
  39        3PZ         0.02735  -0.04423  -0.00937   0.00000   0.10367
  40        4XX        -0.00499   0.00179   0.00044   0.00000   0.00172
  41        4YY        -0.00382  -0.01243   0.01259   0.00000   0.00781
  42        4ZZ         0.00066   0.00696  -0.00796   0.00000   0.00100
  43        4XY         0.00000   0.00000   0.00000   0.01680   0.00000
  44        4XZ         0.00000   0.00000   0.00000   0.00382   0.00000
  45        4YZ        -0.01095  -0.01467  -0.02093   0.00000   0.00773
  46 4   C  1S          0.00930  -0.01026  -0.03242   0.00000   0.00624
  47        2S         -0.02060   0.02310   0.06438   0.00000  -0.00056
  48        2PX         0.00000   0.00000   0.00000   0.15608   0.00000
  49        2PY         0.14621  -0.07966   0.01543   0.00000  -0.04185
  50        2PZ         0.00083   0.27853  -0.00551   0.00000   0.30675
  51        3S          0.00571   0.04025   0.12395   0.00000  -0.09633
  52        3PX         0.00000   0.00000   0.00000   0.08010   0.00000
  53        3PY         0.04118  -0.01966  -0.02009   0.00000   0.00588
  54        3PZ         0.00967   0.10781   0.00799   0.00000   0.03511
  55        4XX         0.00138  -0.00082  -0.00325   0.00000   0.00225
  56        4YY        -0.00170  -0.00095  -0.00770   0.00000  -0.00866
  57        4ZZ         0.00262  -0.00353   0.00649   0.00000   0.00077
  58        4XY         0.00000   0.00000   0.00000  -0.00433   0.00000
  59        4XZ         0.00000   0.00000   0.00000   0.00976   0.00000
  60        4YZ         0.00698   0.00383  -0.00738   0.00000   0.02247
  61 5   C  1S          0.00930  -0.01026   0.03242   0.00000  -0.00624
  62        2S         -0.02060   0.02310  -0.06438   0.00000   0.00056
  63        2PX         0.00000   0.00000   0.00000   0.15608   0.00000
  64        2PY        -0.14621   0.07966   0.01543   0.00000  -0.04185
  65        2PZ         0.00083   0.27853   0.00551   0.00000  -0.30675
  66        3S          0.00571   0.04025  -0.12395   0.00000   0.09633
  67        3PX         0.00000   0.00000   0.00000   0.08010   0.00000
  68        3PY        -0.04118   0.01966  -0.02009   0.00000   0.00588
  69        3PZ         0.00967   0.10781  -0.00799   0.00000  -0.03511
  70        4XX         0.00138  -0.00082   0.00325   0.00000  -0.00225
  71        4YY        -0.00170  -0.00095   0.00770   0.00000   0.00866
  72        4ZZ         0.00262  -0.00353  -0.00649   0.00000  -0.00077
  73        4XY         0.00000   0.00000   0.00000   0.00433   0.00000
  74        4XZ         0.00000   0.00000   0.00000   0.00976   0.00000
  75        4YZ        -0.00698  -0.00383  -0.00738   0.00000   0.02247
  76 6   H  1S          0.03978   0.17277   0.00000   0.00000   0.00000
  77        2S          0.02997   0.14394   0.00000   0.00000   0.00000
  78 7   H  1S          0.18396  -0.02690  -0.19923   0.00000  -0.06025
  79        2S          0.10607  -0.02939  -0.18672   0.00000  -0.06315
  80 8   H  1S          0.18396  -0.02690   0.19923   0.00000   0.06025
  81        2S          0.10607  -0.02939   0.18672   0.00000   0.06315
  82 9   H  1S          0.03156  -0.14944   0.04779   0.00000  -0.18943
  83        2S          0.02364  -0.12672   0.03924   0.00000  -0.19824
  84 10  H  1S          0.03156  -0.14944  -0.04779   0.00000   0.18943
  85        2S          0.02364  -0.12672  -0.03924   0.00000   0.19824
                          16        17        18        19        20
                        (A1)--O   (B1)--O   (A2)--O   (B1)--V   (A1)--V
     Eigenvalues --    -0.42729  -0.29008  -0.25730   0.10540   0.13053
   1 1   N  1S         -0.01994   0.00000   0.00000   0.00000   0.08710
   2        2S          0.03425   0.00000   0.00000   0.00000  -0.14017
   3        2PX         0.00000   0.38509   0.00000  -0.34720   0.00000
   4        2PY         0.00000   0.00000   0.00000   0.00000   0.00000
   5        2PZ         0.00478   0.00000   0.00000   0.00000  -0.23796
   6        3S          0.17733   0.00000   0.00000   0.00000  -1.19827
   7        3PX         0.00000   0.32853   0.00000  -0.50290   0.00000
   8        3PY         0.00000   0.00000   0.00000   0.00000   0.00000
   9        3PZ        -0.04234   0.00000   0.00000   0.00000  -0.64363
  10        4XX        -0.00368   0.00000   0.00000   0.00000   0.01749
  11        4YY        -0.01168   0.00000   0.00000   0.00000   0.01127
  12        4ZZ         0.00676   0.00000   0.00000   0.00000   0.02930
  13        4XY         0.00000   0.00000   0.02524   0.00000   0.00000
  14        4XZ         0.00000   0.00636   0.00000  -0.02030   0.00000
  15        4YZ         0.00000   0.00000   0.00000   0.00000   0.00000
  16 2   C  1S         -0.00213   0.00000   0.00000   0.00000   0.01554
  17        2S          0.01198   0.00000   0.00000   0.00000  -0.01956
  18        2PX         0.00000  -0.03350   0.36989   0.35247   0.00000
  19        2PY        -0.09502   0.00000   0.00000   0.00000  -0.13139
  20        2PZ        -0.18236   0.00000   0.00000   0.00000  -0.00233
  21        3S         -0.05914   0.00000   0.00000   0.00000  -0.38822
  22        3PX         0.00000  -0.02789   0.29197   0.53914   0.00000
  23        3PY         0.03160   0.00000   0.00000   0.00000  -0.19019
  24        3PZ        -0.06725   0.00000   0.00000   0.00000   0.07959
  25        4XX         0.00132   0.00000   0.00000   0.00000   0.00094
  26        4YY        -0.01310   0.00000   0.00000   0.00000   0.00701
  27        4ZZ         0.00479   0.00000   0.00000   0.00000  -0.00756
  28        4XY         0.00000  -0.00685  -0.00228   0.01721   0.00000
  29        4XZ         0.00000   0.02335  -0.00628  -0.00119   0.00000
  30        4YZ        -0.01337   0.00000   0.00000   0.00000   0.01139
  31 3   C  1S         -0.00213   0.00000   0.00000   0.00000   0.01554
  32        2S          0.01198   0.00000   0.00000   0.00000  -0.01956
  33        2PX         0.00000  -0.03350  -0.36989   0.35247   0.00000
  34        2PY         0.09502   0.00000   0.00000   0.00000   0.13139
  35        2PZ        -0.18236   0.00000   0.00000   0.00000  -0.00233
  36        3S         -0.05914   0.00000   0.00000   0.00000  -0.38822
  37        3PX         0.00000  -0.02789  -0.29197   0.53914   0.00000
  38        3PY        -0.03160   0.00000   0.00000   0.00000   0.19019
  39        3PZ        -0.06725   0.00000   0.00000   0.00000   0.07959
  40        4XX         0.00132   0.00000   0.00000   0.00000   0.00094
  41        4YY        -0.01310   0.00000   0.00000   0.00000   0.00701
  42        4ZZ         0.00479   0.00000   0.00000   0.00000  -0.00756
  43        4XY         0.00000   0.00685  -0.00228  -0.01721   0.00000
  44        4XZ         0.00000   0.02335   0.00628  -0.00119   0.00000
  45        4YZ         0.01337   0.00000   0.00000   0.00000  -0.01139
  46 4   C  1S          0.01072   0.00000   0.00000   0.00000   0.02314
  47        2S         -0.02971   0.00000   0.00000   0.00000  -0.04198
  48        2PX         0.00000  -0.33053   0.21696  -0.17444   0.00000
  49        2PY         0.38202   0.00000   0.00000   0.00000  -0.01314
  50        2PZ         0.06272   0.00000   0.00000   0.00000   0.04094
  51        3S         -0.01278   0.00000   0.00000   0.00000  -0.17093
  52        3PX         0.00000  -0.24178   0.16285  -0.27390   0.00000
  53        3PY         0.12596   0.00000   0.00000   0.00000  -0.02603
  54        3PZ         0.05264   0.00000   0.00000   0.00000   0.11775
  55        4XX        -0.00027   0.00000   0.00000   0.00000  -0.00086
  56        4YY        -0.01079   0.00000   0.00000   0.00000  -0.00372
  57        4ZZ         0.01601   0.00000   0.00000   0.00000   0.00974
  58        4XY         0.00000   0.01133   0.01334   0.01699   0.00000
  59        4XZ         0.00000  -0.00306   0.01376   0.02035   0.00000
  60        4YZ        -0.00471   0.00000   0.00000   0.00000  -0.01343
  61 5   C  1S          0.01072   0.00000   0.00000   0.00000   0.02314
  62        2S         -0.02971   0.00000   0.00000   0.00000  -0.04198
  63        2PX         0.00000  -0.33053  -0.21696  -0.17444   0.00000
  64        2PY        -0.38202   0.00000   0.00000   0.00000   0.01314
  65        2PZ         0.06272   0.00000   0.00000   0.00000   0.04094
  66        3S         -0.01278   0.00000   0.00000   0.00000  -0.17093
  67        3PX         0.00000  -0.24178  -0.16285  -0.27390   0.00000
  68        3PY        -0.12596   0.00000   0.00000   0.00000   0.02603
  69        3PZ         0.05264   0.00000   0.00000   0.00000   0.11775
  70        4XX        -0.00027   0.00000   0.00000   0.00000  -0.00086
  71        4YY        -0.01079   0.00000   0.00000   0.00000  -0.00372
  72        4ZZ         0.01601   0.00000   0.00000   0.00000   0.00974
  73        4XY         0.00000  -0.01133   0.01334  -0.01699   0.00000
  74        4XZ         0.00000  -0.00306  -0.01376   0.02035   0.00000
  75        4YZ         0.00471   0.00000   0.00000   0.00000   0.01343
  76 6   H  1S          0.03262   0.00000   0.00000   0.00000   0.10730
  77        2S          0.02826   0.00000   0.00000   0.00000   1.57253
  78 7   H  1S         -0.11718   0.00000   0.00000   0.00000   0.01984
  79        2S         -0.13676   0.00000   0.00000   0.00000   0.45721
  80 8   H  1S         -0.11718   0.00000   0.00000   0.00000   0.01984
  81        2S         -0.13676   0.00000   0.00000   0.00000   0.45721
  82 9   H  1S          0.10770   0.00000   0.00000   0.00000   0.04853
  83        2S          0.11648   0.00000   0.00000   0.00000   0.34999
  84 10  H  1S          0.10770   0.00000   0.00000   0.00000   0.04853
  85        2S          0.11648   0.00000   0.00000   0.00000   0.34999
                          21        22        23        24        25
                        (A2)--V   (A1)--V   (B2)--V   (A1)--V   (B2)--V
     Eigenvalues --     0.15405   0.19476   0.21822   0.22657   0.23731
   1 1   N  1S          0.00000  -0.07020   0.00000   0.03696   0.00000
   2        2S          0.00000   0.10626   0.00000  -0.11170   0.00000
   3        2PX         0.00000   0.00000   0.00000   0.00000   0.00000
   4        2PY         0.00000   0.00000   0.03511   0.00000  -0.00280
   5        2PZ         0.00000   0.09828   0.00000   0.13025   0.00000
   6        3S          0.00000   1.06300   0.00000  -0.08136   0.00000
   7        3PX         0.00000   0.00000   0.00000   0.00000   0.00000
   8        3PY         0.00000   0.00000   0.11382   0.00000   0.22094
   9        3PZ         0.00000   0.39125   0.00000   0.09564   0.00000
  10        4XX         0.00000  -0.02134   0.00000  -0.00494   0.00000
  11        4YY         0.00000  -0.03360   0.00000   0.01116   0.00000
  12        4ZZ         0.00000   0.00688   0.00000   0.00082   0.00000
  13        4XY        -0.02874   0.00000   0.00000   0.00000   0.00000
  14        4XZ         0.00000   0.00000   0.00000   0.00000   0.00000
  15        4YZ         0.00000   0.00000   0.00235   0.00000  -0.02111
  16 2   C  1S          0.00000   0.06891   0.06173  -0.05886  -0.01777
  17        2S          0.00000  -0.10528  -0.10768   0.09802   0.06474
  18        2PX        -0.23059   0.00000   0.00000   0.00000   0.00000
  19        2PY         0.00000  -0.08182  -0.23509   0.05937  -0.05432
  20        2PZ         0.00000  -0.09799  -0.09311   0.06694  -0.04406
  21        3S          0.00000  -0.85198  -0.97835   0.73840  -0.43921
  22        3PX        -0.42025   0.00000   0.00000   0.00000   0.00000
  23        3PY         0.00000  -0.29219  -1.00221   0.52560   0.34634
  24        3PZ         0.00000  -0.48210  -0.34142   0.22650  -0.14074
  25        4XX         0.00000  -0.00035  -0.00074  -0.00031   0.00277
  26        4YY         0.00000   0.01997   0.00015  -0.01054  -0.00117
  27        4ZZ         0.00000   0.00057   0.00654  -0.00335  -0.01570
  28        4XY        -0.00368   0.00000   0.00000   0.00000   0.00000
  29        4XZ        -0.02745   0.00000   0.00000   0.00000   0.00000
  30        4YZ         0.00000   0.00276   0.00380   0.01752  -0.00146
  31 3   C  1S          0.00000   0.06891  -0.06173  -0.05886   0.01777
  32        2S          0.00000  -0.10528   0.10768   0.09802  -0.06474
  33        2PX         0.23059   0.00000   0.00000   0.00000   0.00000
  34        2PY         0.00000   0.08182  -0.23509  -0.05937  -0.05432
  35        2PZ         0.00000  -0.09799   0.09311   0.06694   0.04406
  36        3S          0.00000  -0.85198   0.97835   0.73840   0.43921
  37        3PX         0.42025   0.00000   0.00000   0.00000   0.00000
  38        3PY         0.00000   0.29219  -1.00221  -0.52560   0.34634
  39        3PZ         0.00000  -0.48210   0.34142   0.22650   0.14074
  40        4XX         0.00000  -0.00035   0.00074  -0.00031  -0.00277
  41        4YY         0.00000   0.01997  -0.00015  -0.01054   0.00117
  42        4ZZ         0.00000   0.00057  -0.00654  -0.00335   0.01570
  43        4XY        -0.00368   0.00000   0.00000   0.00000   0.00000
  44        4XZ         0.02745   0.00000   0.00000   0.00000   0.00000
  45        4YZ         0.00000  -0.00276   0.00380  -0.01752  -0.00146
  46 4   C  1S          0.00000   0.02358  -0.02601   0.05109   0.08985
  47        2S          0.00000  -0.01673   0.07665  -0.07915  -0.17247
  48        2PX         0.38017   0.00000   0.00000   0.00000   0.00000
  49        2PY         0.00000  -0.08737  -0.03802  -0.13421  -0.07234
  50        2PZ         0.00000   0.12465   0.06477   0.14715   0.15823
  51        3S          0.00000  -0.66733  -0.27967  -0.89727  -0.89588
  52        3PX         0.68086   0.00000   0.00000   0.00000   0.00000
  53        3PY         0.00000  -0.19926   0.28494  -0.57976  -0.61232
  54        3PZ         0.00000   0.21700  -0.09687   0.49104   1.10822
  55        4XX         0.00000  -0.00040   0.00152   0.00191  -0.00040
  56        4YY         0.00000   0.00576  -0.01634  -0.00257   0.01326
  57        4ZZ         0.00000   0.00059   0.00437   0.00722   0.00779
  58        4XY         0.01731   0.00000   0.00000   0.00000   0.00000
  59        4XZ        -0.00904   0.00000   0.00000   0.00000   0.00000
  60        4YZ         0.00000  -0.01378  -0.00196  -0.00480   0.00708
  61 5   C  1S          0.00000   0.02358   0.02601   0.05109  -0.08985
  62        2S          0.00000  -0.01673  -0.07665  -0.07915   0.17247
  63        2PX        -0.38017   0.00000   0.00000   0.00000   0.00000
  64        2PY         0.00000   0.08737  -0.03802   0.13421  -0.07234
  65        2PZ         0.00000   0.12465  -0.06477   0.14715  -0.15823
  66        3S          0.00000  -0.66733   0.27967  -0.89727   0.89588
  67        3PX        -0.68086   0.00000   0.00000   0.00000   0.00000
  68        3PY         0.00000   0.19926   0.28494   0.57976  -0.61232
  69        3PZ         0.00000   0.21700   0.09687   0.49104  -1.10822
  70        4XX         0.00000  -0.00040  -0.00152   0.00191   0.00040
  71        4YY         0.00000   0.00576   0.01634  -0.00257  -0.01326
  72        4ZZ         0.00000   0.00059  -0.00437   0.00722  -0.00779
  73        4XY         0.01731   0.00000   0.00000   0.00000   0.00000
  74        4XZ         0.00904   0.00000   0.00000   0.00000   0.00000
  75        4YZ         0.00000   0.01378  -0.00196   0.00480   0.00708
  76 6   H  1S          0.00000  -0.01742   0.00000   0.02204   0.00000
  77        2S          0.00000  -0.90910   0.00000  -0.11559   0.00000
  78 7   H  1S          0.00000   0.06749   0.03168  -0.02066  -0.01899
  79        2S          0.00000   1.07839   1.72120  -0.99472  -0.06120
  80 8   H  1S          0.00000   0.06749  -0.03168  -0.02066   0.01899
  81        2S          0.00000   1.07839  -1.72120  -0.99472   0.06120
  82 9   H  1S          0.00000   0.02470  -0.00980   0.03227   0.03253
  83        2S          0.00000   0.72797  -0.09293   1.33485   1.79879
  84 10  H  1S          0.00000   0.02470   0.00980   0.03227  -0.03253
  85        2S          0.00000   0.72797   0.09293   1.33485  -1.79879
                          26        27        28        29        30
                        (B2)--V   (A1)--V   (A1)--V   (B2)--V   (B2)--V
     Eigenvalues --     0.30097   0.30414   0.39737   0.42798   0.52287
   1 1   N  1S          0.00000  -0.07221   0.07205   0.00000   0.00000
   2        2S          0.00000   0.07919  -0.02298   0.00000   0.00000
   3        2PX         0.00000   0.00000   0.00000   0.00000   0.00000
   4        2PY         0.33810   0.00000   0.00000  -0.15791  -0.35902
   5        2PZ         0.00000  -0.21362   0.13413   0.00000   0.00000
   6        3S          0.00000   1.70198  -2.40192   0.00000   0.00000
   7        3PX         0.00000   0.00000   0.00000   0.00000   0.00000
   8        3PY         1.11774   0.00000   0.00000  -0.16398  -1.73135
   9        3PZ         0.00000  -0.84700   1.62911   0.00000   0.00000
  10        4XX         0.00000  -0.02434   0.05029   0.00000   0.00000
  11        4YY         0.00000  -0.03496  -0.01493   0.00000   0.00000
  12        4ZZ         0.00000   0.00656   0.01667   0.00000   0.00000
  13        4XY         0.00000   0.00000   0.00000   0.00000   0.00000
  14        4XZ         0.00000   0.00000   0.00000   0.00000   0.00000
  15        4YZ         0.03237   0.00000   0.00000   0.06165  -0.04675
  16 2   C  1S          0.06458  -0.01410  -0.06814   0.05788  -0.05222
  17        2S         -0.11367   0.04440  -0.03087  -0.06134  -0.00693
  18        2PX         0.00000   0.00000   0.00000   0.00000   0.00000
  19        2PY         0.14626   0.13214  -0.11277   0.13226  -0.22016
  20        2PZ        -0.07109  -0.19309  -0.17616  -0.08406   0.26681
  21        3S         -1.21497   0.26999   2.71138  -2.38480   1.42215
  22        3PX         0.00000   0.00000   0.00000   0.00000   0.00000
  23        3PY         0.42128   0.80638  -1.96741   0.92751  -1.65215
  24        3PZ        -0.46009  -1.18495  -0.83199   2.43495   0.78556
  25        4XX        -0.00552  -0.00368  -0.00079   0.00384   0.01391
  26        4YY        -0.00470   0.02311  -0.00381  -0.02176  -0.01695
  27        4ZZ         0.01179  -0.02561   0.00528   0.00912  -0.00968
  28        4XY         0.00000   0.00000   0.00000   0.00000   0.00000
  29        4XZ         0.00000   0.00000   0.00000   0.00000   0.00000
  30        4YZ        -0.03079  -0.01466  -0.00421   0.00834   0.00053
  31 3   C  1S         -0.06458  -0.01410  -0.06814  -0.05788   0.05222
  32        2S          0.11367   0.04440  -0.03087   0.06134   0.00693
  33        2PX         0.00000   0.00000   0.00000   0.00000   0.00000
  34        2PY         0.14626  -0.13214   0.11277   0.13226  -0.22016
  35        2PZ         0.07109  -0.19309  -0.17616   0.08406  -0.26681
  36        3S          1.21497   0.26999   2.71138   2.38480  -1.42215
  37        3PX         0.00000   0.00000   0.00000   0.00000   0.00000
  38        3PY         0.42128  -0.80638   1.96741   0.92751  -1.65215
  39        3PZ         0.46009  -1.18495  -0.83199  -2.43495  -0.78556
  40        4XX         0.00552  -0.00368  -0.00079  -0.00384  -0.01391
  41        4YY         0.00470   0.02311  -0.00381   0.02176   0.01695
  42        4ZZ        -0.01179  -0.02561   0.00528  -0.00912   0.00968
  43        4XY         0.00000   0.00000   0.00000   0.00000   0.00000
  44        4XZ         0.00000   0.00000   0.00000   0.00000   0.00000
  45        4YZ        -0.03079   0.01466   0.00421   0.00834   0.00053
  46 4   C  1S          0.04135   0.04526   0.04881  -0.06061   0.06905
  47        2S         -0.03842  -0.04634  -0.07304  -0.03277  -0.07026
  48        2PX         0.00000   0.00000   0.00000   0.00000   0.00000
  49        2PY         0.20809  -0.09581   0.13988   0.09337   0.19514
  50        2PZ         0.02266  -0.12771  -0.02281   0.21043  -0.01218
  51        3S         -1.12856  -1.14811  -1.66195   3.21432  -2.59757
  52        3PX         0.00000   0.00000   0.00000   0.00000   0.00000
  53        3PY         1.23044  -0.53416  -0.19531  -0.26976   2.84857
  54        3PZ         0.13452  -0.48216  -1.57689   2.61942  -0.35836
  55        4XX         0.00196  -0.00063   0.01094  -0.01670   0.00297
  56        4YY         0.02543   0.00379  -0.03704   0.01223   0.00385
  57        4ZZ        -0.02160   0.00757   0.01371   0.01112  -0.01800
  58        4XY         0.00000   0.00000   0.00000   0.00000   0.00000
  59        4XZ         0.00000   0.00000   0.00000   0.00000   0.00000
  60        4YZ         0.00930   0.02582   0.01603   0.01689  -0.01350
  61 5   C  1S         -0.04135   0.04526   0.04881   0.06061  -0.06905
  62        2S          0.03842  -0.04634  -0.07304   0.03277   0.07026
  63        2PX         0.00000   0.00000   0.00000   0.00000   0.00000
  64        2PY         0.20809   0.09581  -0.13988   0.09337   0.19514
  65        2PZ        -0.02266  -0.12771  -0.02281  -0.21043   0.01218
  66        3S          1.12856  -1.14811  -1.66195  -3.21432   2.59757
  67        3PX         0.00000   0.00000   0.00000   0.00000   0.00000
  68        3PY         1.23044   0.53416   0.19531  -0.26976   2.84857
  69        3PZ        -0.13452  -0.48216  -1.57689  -2.61942   0.35836
  70        4XX        -0.00196  -0.00063   0.01094   0.01670  -0.00297
  71        4YY        -0.02543   0.00379  -0.03704  -0.01223  -0.00385
  72        4ZZ         0.02160   0.00757   0.01371  -0.01112   0.01800
  73        4XY         0.00000   0.00000   0.00000   0.00000   0.00000
  74        4XZ         0.00000   0.00000   0.00000   0.00000   0.00000
  75        4YZ         0.00930  -0.02582  -0.01603   0.01689  -0.01350
  76 6   H  1S          0.00000   0.10562   0.00677   0.00000   0.00000
  77        2S          0.00000   0.66650  -0.73465   0.00000   0.00000
  78 7   H  1S         -0.07381   0.03125  -0.03671  -0.02766  -0.10821
  79        2S          0.14108  -0.32504   0.99039  -0.77145   0.47951
  80 8   H  1S          0.07381   0.03125  -0.03671   0.02766   0.10821
  81        2S         -0.14108  -0.32504   0.99039   0.77145  -0.47951
  82 9   H  1S         -0.05622  -0.08003  -0.03138  -0.02923   0.04867
  83        2S         -0.34263   0.14335  -0.47619   0.94458  -0.84110
  84 10  H  1S          0.05622  -0.08003  -0.03138   0.02923  -0.04867
  85        2S          0.34263   0.14335  -0.47619  -0.94458   0.84110
                          31        32        33        34        35
                        (A1)--V   (B1)--V   (A1)--V   (A2)--V   (B2)--V
     Eigenvalues --     0.60395   0.61785   0.64988   0.66516   0.67612
   1 1   N  1S          0.01231   0.00000  -0.08208   0.00000   0.00000
   2        2S         -0.10833   0.00000   0.28677   0.00000   0.00000
   3        2PX         0.00000   0.16627   0.00000   0.00000   0.00000
   4        2PY         0.00000   0.00000   0.00000   0.00000  -0.17248
   5        2PZ        -0.02628   0.00000  -0.17516   0.00000   0.00000
   6        3S         -0.71177   0.00000   0.08780   0.00000   0.00000
   7        3PX         0.00000   0.07339   0.00000   0.00000   0.00000
   8        3PY         0.00000   0.00000   0.00000   0.00000   0.41366
   9        3PZ         0.74636   0.00000  -0.42176   0.00000   0.00000
  10        4XX         0.04822   0.00000   0.08574   0.00000   0.00000
  11        4YY        -0.01229   0.00000  -0.02390   0.00000   0.00000
  12        4ZZ        -0.10212   0.00000  -0.08781   0.00000   0.00000
  13        4XY         0.00000   0.00000   0.00000  -0.04265   0.00000
  14        4XZ         0.00000  -0.03509   0.00000   0.00000   0.00000
  15        4YZ         0.00000   0.00000   0.00000   0.00000  -0.03182
  16 2   C  1S         -0.02781   0.00000   0.05646   0.00000  -0.00118
  17        2S         -0.47635   0.00000  -0.14953   0.00000  -0.31937
  18        2PX         0.00000   0.58415   0.00000  -0.65668   0.00000
  19        2PY         0.00869   0.00000   0.25636   0.00000  -0.07774
  20        2PZ         0.09681   0.00000  -0.36702   0.00000   0.30854
  21        3S          1.19858   0.00000  -0.43223   0.00000  -0.73796
  22        3PX         0.00000  -0.57774   0.00000   0.77594   0.00000
  23        3PY        -0.57627   0.00000   0.37707   0.00000   0.81231
  24        3PZ        -0.26617   0.00000   0.87864   0.00000   0.11323
  25        4XX         0.02304   0.00000  -0.03507   0.00000   0.02049
  26        4YY        -0.08244   0.00000  -0.00705   0.00000  -0.05713
  27        4ZZ        -0.05371   0.00000   0.05840   0.00000  -0.06256
  28        4XY         0.00000  -0.01992   0.00000   0.04453   0.00000
  29        4XZ         0.00000  -0.01677   0.00000   0.02490   0.00000
  30        4YZ        -0.05686   0.00000  -0.04128   0.00000   0.01537
  31 3   C  1S         -0.02781   0.00000   0.05646   0.00000   0.00118
  32        2S         -0.47635   0.00000  -0.14953   0.00000   0.31937
  33        2PX         0.00000   0.58415   0.00000   0.65668   0.00000
  34        2PY        -0.00869   0.00000  -0.25636   0.00000  -0.07774
  35        2PZ         0.09681   0.00000  -0.36702   0.00000  -0.30854
  36        3S          1.19858   0.00000  -0.43223   0.00000   0.73796
  37        3PX         0.00000  -0.57774   0.00000  -0.77594   0.00000
  38        3PY         0.57627   0.00000  -0.37707   0.00000   0.81231
  39        3PZ        -0.26617   0.00000   0.87864   0.00000  -0.11323
  40        4XX         0.02304   0.00000  -0.03507   0.00000  -0.02049
  41        4YY        -0.08244   0.00000  -0.00705   0.00000   0.05713
  42        4ZZ        -0.05371   0.00000   0.05840   0.00000   0.06256
  43        4XY         0.00000   0.01992   0.00000   0.04453   0.00000
  44        4XZ         0.00000  -0.01677   0.00000  -0.02490   0.00000
  45        4YZ         0.05686   0.00000   0.04128   0.00000   0.01537
  46 4   C  1S          0.00041   0.00000  -0.01922   0.00000  -0.09198
  47        2S         -0.36875   0.00000   0.10591   0.00000  -0.05933
  48        2PX         0.00000   0.43185   0.00000  -0.32607   0.00000
  49        2PY        -0.19679   0.00000   0.11777   0.00000  -0.46526
  50        2PZ        -0.13792   0.00000   0.31067   0.00000  -0.16930
  51        3S          0.10595   0.00000   0.55127   0.00000   1.52657
  52        3PX         0.00000  -0.26533   0.00000   0.30894   0.00000
  53        3PY         0.40498   0.00000  -0.08202   0.00000  -0.27364
  54        3PZ        -0.19186   0.00000   0.05123   0.00000   1.21351
  55        4XX         0.02085   0.00000   0.00697   0.00000   0.05228
  56        4YY        -0.02012   0.00000   0.00560   0.00000  -0.09131
  57        4ZZ        -0.08924   0.00000  -0.01314   0.00000  -0.03675
  58        4XY         0.00000  -0.01290   0.00000  -0.00419   0.00000
  59        4XZ         0.00000   0.03189   0.00000  -0.04375   0.00000
  60        4YZ         0.04985   0.00000   0.05488   0.00000   0.00214
  61 5   C  1S          0.00041   0.00000  -0.01922   0.00000   0.09198
  62        2S         -0.36875   0.00000   0.10591   0.00000   0.05933
  63        2PX         0.00000   0.43185   0.00000   0.32607   0.00000
  64        2PY         0.19679   0.00000  -0.11777   0.00000  -0.46526
  65        2PZ        -0.13792   0.00000   0.31067   0.00000   0.16930
  66        3S          0.10595   0.00000   0.55127   0.00000  -1.52657
  67        3PX         0.00000  -0.26533   0.00000  -0.30894   0.00000
  68        3PY        -0.40498   0.00000   0.08202   0.00000  -0.27364
  69        3PZ        -0.19186   0.00000   0.05123   0.00000  -1.21351
  70        4XX         0.02085   0.00000   0.00697   0.00000  -0.05228
  71        4YY        -0.02012   0.00000   0.00560   0.00000   0.09131
  72        4ZZ        -0.08924   0.00000  -0.01314   0.00000   0.03675
  73        4XY         0.00000   0.01290   0.00000  -0.00419   0.00000
  74        4XZ         0.00000   0.03189   0.00000   0.04375   0.00000
  75        4YZ        -0.04985   0.00000  -0.05488   0.00000   0.00214
  76 6   H  1S         -0.24341   0.00000  -0.51311   0.00000   0.00000
  77        2S         -0.17824   0.00000   0.49251   0.00000   0.00000
  78 7   H  1S         -0.36952   0.00000  -0.01473   0.00000  -0.17304
  79        2S          0.37175   0.00000  -0.34829   0.00000  -0.33332
  80 8   H  1S         -0.36952   0.00000  -0.01473   0.00000   0.17304
  81        2S          0.37175   0.00000  -0.34829   0.00000   0.33332
  82 9   H  1S         -0.26336   0.00000  -0.19254   0.00000  -0.33593
  83        2S         -0.05346   0.00000   0.22269   0.00000   0.56715
  84 10  H  1S         -0.26336   0.00000  -0.19254   0.00000   0.33593
  85        2S         -0.05346   0.00000   0.22269   0.00000  -0.56715
                          36        37        38        39        40
                        (A1)--V   (B1)--V   (B2)--V   (A1)--V   (A2)--V
     Eigenvalues --     0.68423   0.69576   0.70664   0.71710   0.76100
   1 1   N  1S          0.02540   0.00000   0.00000   0.00830   0.00000
   2        2S          0.00986   0.00000   0.00000  -0.09528   0.00000
   3        2PX         0.00000   0.20349   0.00000   0.00000   0.00000
   4        2PY         0.00000   0.00000  -0.19174   0.00000   0.00000
   5        2PZ         0.03792   0.00000   0.00000   0.20880   0.00000
   6        3S          0.95080   0.00000   0.00000   0.65012   0.00000
   7        3PX         0.00000  -0.03209   0.00000   0.00000   0.00000
   8        3PY         0.00000   0.00000   0.06510   0.00000   0.00000
   9        3PZ        -0.44977   0.00000   0.00000  -0.52058   0.00000
  10        4XX        -0.07712   0.00000   0.00000  -0.05796   0.00000
  11        4YY         0.15685   0.00000   0.00000   0.09786   0.00000
  12        4ZZ         0.03310   0.00000   0.00000  -0.03344   0.00000
  13        4XY         0.00000   0.00000   0.00000   0.00000   0.01148
  14        4XZ         0.00000  -0.05944   0.00000   0.00000   0.00000
  15        4YZ         0.00000   0.00000   0.06823   0.00000   0.00000
  16 2   C  1S          0.01846   0.00000  -0.07492  -0.04545   0.00000
  17        2S          0.26208   0.00000  -0.25898   0.45657   0.00000
  18        2PX         0.00000   0.42515   0.00000   0.00000   0.35816
  19        2PY        -0.32678   0.00000   0.13988  -0.32816   0.00000
  20        2PZ         0.37103   0.00000  -0.48677  -0.20257   0.00000
  21        3S         -0.83406   0.00000   1.58649  -0.50153   0.00000
  22        3PX         0.00000  -0.66487   0.00000   0.00000  -0.74952
  23        3PY         0.95253   0.00000  -0.75093   0.61058   0.00000
  24        3PZ        -0.19855   0.00000  -0.09960   0.20279   0.00000
  25        4XX        -0.00916   0.00000   0.04313   0.02880   0.00000
  26        4YY        -0.04227   0.00000  -0.07117  -0.06128   0.00000
  27        4ZZ         0.09576   0.00000  -0.08135   0.03658   0.00000
  28        4XY         0.00000  -0.01450   0.00000   0.00000   0.00530
  29        4XZ         0.00000   0.02432   0.00000   0.00000   0.01605
  30        4YZ         0.02144   0.00000  -0.04252  -0.02535   0.00000
  31 3   C  1S          0.01846   0.00000   0.07492  -0.04545   0.00000
  32        2S          0.26208   0.00000   0.25898   0.45657   0.00000
  33        2PX         0.00000   0.42515   0.00000   0.00000  -0.35816
  34        2PY         0.32678   0.00000   0.13988   0.32816   0.00000
  35        2PZ         0.37103   0.00000   0.48677  -0.20257   0.00000
  36        3S         -0.83406   0.00000  -1.58649  -0.50153   0.00000
  37        3PX         0.00000  -0.66487   0.00000   0.00000   0.74952
  38        3PY        -0.95253   0.00000  -0.75093  -0.61058   0.00000
  39        3PZ        -0.19855   0.00000   0.09960   0.20279   0.00000
  40        4XX        -0.00916   0.00000  -0.04313   0.02880   0.00000
  41        4YY        -0.04227   0.00000   0.07117  -0.06128   0.00000
  42        4ZZ         0.09576   0.00000   0.08135   0.03658   0.00000
  43        4XY         0.00000   0.01450   0.00000   0.00000   0.00530
  44        4XZ         0.00000   0.02432   0.00000   0.00000  -0.01605
  45        4YZ        -0.02144   0.00000  -0.04252   0.02535   0.00000
  46 4   C  1S         -0.04480   0.00000   0.05587   0.03938   0.00000
  47        2S         -0.13068   0.00000  -0.25367   0.41028   0.00000
  48        2PX         0.00000  -0.60702   0.00000   0.00000  -0.70085
  49        2PY         0.25834   0.00000  -0.11864  -0.28967   0.00000
  50        2PZ         0.30179   0.00000  -0.26358  -0.05429   0.00000
  51        3S          0.49961   0.00000  -0.89079  -0.25987   0.00000
  52        3PX         0.00000   0.73603   0.00000   0.00000   1.32541
  53        3PY        -0.37474   0.00000   0.32824   0.23019   0.00000
  54        3PZ        -0.03619   0.00000  -0.92586  -0.04501   0.00000
  55        4XX         0.02850   0.00000  -0.02779  -0.04908   0.00000
  56        4YY        -0.04989   0.00000  -0.01850   0.07500   0.00000
  57        4ZZ        -0.06019   0.00000   0.03593   0.10061   0.00000
  58        4XY         0.00000   0.04359   0.00000   0.00000  -0.00531
  59        4XZ         0.00000  -0.01192   0.00000   0.00000   0.00026
  60        4YZ         0.01530   0.00000   0.02742   0.05147   0.00000
  61 5   C  1S         -0.04480   0.00000  -0.05587   0.03938   0.00000
  62        2S         -0.13068   0.00000   0.25367   0.41028   0.00000
  63        2PX         0.00000  -0.60702   0.00000   0.00000   0.70085
  64        2PY        -0.25834   0.00000  -0.11864   0.28967   0.00000
  65        2PZ         0.30179   0.00000   0.26358  -0.05429   0.00000
  66        3S          0.49961   0.00000   0.89079  -0.25987   0.00000
  67        3PX         0.00000   0.73603   0.00000   0.00000  -1.32541
  68        3PY         0.37474   0.00000   0.32824  -0.23019   0.00000
  69        3PZ        -0.03619   0.00000   0.92586  -0.04501   0.00000
  70        4XX         0.02850   0.00000   0.02779  -0.04908   0.00000
  71        4YY        -0.04989   0.00000   0.01850   0.07500   0.00000
  72        4ZZ        -0.06019   0.00000  -0.03593   0.10061   0.00000
  73        4XY         0.00000  -0.04359   0.00000   0.00000  -0.00531
  74        4XZ         0.00000  -0.01192   0.00000   0.00000  -0.00026
  75        4YZ        -0.01530   0.00000   0.02742  -0.05147   0.00000
  76 6   H  1S          0.08986   0.00000   0.00000  -0.19485   0.00000
  77        2S          0.22981   0.00000   0.00000   0.29309   0.00000
  78 7   H  1S         -0.04422   0.00000  -0.41359  -0.33394   0.00000
  79        2S         -0.18449   0.00000   0.42372   0.06731   0.00000
  80 8   H  1S         -0.04422   0.00000   0.41359  -0.33394   0.00000
  81        2S         -0.18449   0.00000  -0.42372   0.06731   0.00000
  82 9   H  1S         -0.35970   0.00000   0.08696   0.05030   0.00000
  83        2S          0.17037   0.00000  -0.46800  -0.01651   0.00000
  84 10  H  1S         -0.35970   0.00000  -0.08696   0.05030   0.00000
  85        2S          0.17037   0.00000   0.46800  -0.01651   0.00000
                          41        42        43        44        45
                        (B1)--V   (B2)--V   (A1)--V   (B2)--V   (A1)--V
     Eigenvalues --     0.84261   0.88231   0.89864   0.92864   0.93377
   1 1   N  1S          0.00000   0.00000   0.02385   0.00000   0.03026
   2        2S          0.00000   0.00000  -0.07465   0.00000  -0.04153
   3        2PX        -0.95726   0.00000   0.00000   0.00000   0.00000
   4        2PY         0.00000  -0.16607   0.00000  -0.03264   0.00000
   5        2PZ         0.00000   0.00000  -0.30511   0.00000  -0.75903
   6        3S          0.00000   0.00000   0.51256   0.00000  -1.17812
   7        3PX         1.49047   0.00000   0.00000   0.00000   0.00000
   8        3PY         0.00000   0.62031   0.00000   0.31062   0.00000
   9        3PZ         0.00000   0.00000   0.14868   0.00000   2.09151
  10        4XX         0.00000   0.00000  -0.05155   0.00000  -0.02787
  11        4YY         0.00000   0.00000  -0.08092   0.00000  -0.02880
  12        4ZZ         0.00000   0.00000   0.13870   0.00000  -0.01170
  13        4XY         0.00000   0.00000   0.00000   0.00000   0.00000
  14        4XZ         0.03679   0.00000   0.00000   0.00000   0.00000
  15        4YZ         0.00000  -0.06595   0.00000  -0.07603   0.00000
  16 2   C  1S          0.00000   0.03241   0.01025  -0.00290   0.00604
  17        2S          0.00000   0.05239  -0.01409  -0.07963   0.34790
  18        2PX         0.19879   0.00000   0.00000   0.00000   0.00000
  19        2PY         0.00000  -0.57729  -0.34313  -0.38482   0.38637
  20        2PZ         0.00000  -0.31708  -0.37583  -0.09262   0.16438
  21        3S          0.00000  -0.63308  -0.90439  -1.44011   0.39634
  22        3PX        -0.70142   0.00000   0.00000   0.00000   0.00000
  23        3PY         0.00000   2.11183   1.42617   2.19473  -1.95848
  24        3PZ         0.00000   0.89331   1.55225   0.74989  -0.55857
  25        4XX         0.00000  -0.02657  -0.00198   0.01522   0.00320
  26        4YY         0.00000   0.06728   0.03369  -0.02802   0.04506
  27        4ZZ         0.00000  -0.07487  -0.07001  -0.06841   0.07254
  28        4XY         0.00916   0.00000   0.00000   0.00000   0.00000
  29        4XZ        -0.00444   0.00000   0.00000   0.00000   0.00000
  30        4YZ         0.00000   0.07387  -0.02257  -0.05215  -0.07057
  31 3   C  1S          0.00000  -0.03241   0.01025   0.00290   0.00604
  32        2S          0.00000  -0.05239  -0.01409   0.07963   0.34790
  33        2PX         0.19879   0.00000   0.00000   0.00000   0.00000
  34        2PY         0.00000  -0.57729   0.34313  -0.38482  -0.38637
  35        2PZ         0.00000   0.31708  -0.37583   0.09262   0.16438
  36        3S          0.00000   0.63308  -0.90439   1.44011   0.39634
  37        3PX        -0.70142   0.00000   0.00000   0.00000   0.00000
  38        3PY         0.00000   2.11183  -1.42617   2.19473   1.95848
  39        3PZ         0.00000  -0.89331   1.55225  -0.74989  -0.55857
  40        4XX         0.00000   0.02657  -0.00198  -0.01522   0.00320
  41        4YY         0.00000  -0.06728   0.03369   0.02802   0.04506
  42        4ZZ         0.00000   0.07487  -0.07001   0.06841   0.07254
  43        4XY        -0.00916   0.00000   0.00000   0.00000   0.00000
  44        4XZ        -0.00444   0.00000   0.00000   0.00000   0.00000
  45        4YZ         0.00000   0.07387   0.02257  -0.05215   0.07057
  46 4   C  1S          0.00000   0.03326  -0.02885  -0.01310  -0.00246
  47        2S          0.00000   0.04737  -0.09653   0.01639   0.31894
  48        2PX        -0.07049   0.00000   0.00000   0.00000   0.00000
  49        2PY         0.00000  -0.31854   0.19619   0.54274  -0.07210
  50        2PZ         0.00000   0.04917  -0.43906  -0.57343   0.06537
  51        3S          0.00000   0.34365   1.04780   2.76809  -0.93130
  52        3PX         0.20460   0.00000   0.00000   0.00000   0.00000
  53        3PY         0.00000   0.90205  -0.51701  -2.85873   0.36927
  54        3PZ         0.00000   0.08428   1.71145   2.93317  -0.52541
  55        4XX         0.00000  -0.03467   0.01439  -0.01416   0.01151
  56        4YY         0.00000  -0.04365  -0.04268   0.09346   0.06647
  57        4ZZ         0.00000   0.10857   0.03680   0.02757  -0.05823
  58        4XY        -0.02489   0.00000   0.00000   0.00000   0.00000
  59        4XZ         0.00742   0.00000   0.00000   0.00000   0.00000
  60        4YZ         0.00000  -0.04060   0.11629   0.01104   0.05802
  61 5   C  1S          0.00000  -0.03326  -0.02885   0.01310  -0.00246
  62        2S          0.00000  -0.04737  -0.09653  -0.01639   0.31894
  63        2PX        -0.07049   0.00000   0.00000   0.00000   0.00000
  64        2PY         0.00000  -0.31854  -0.19619   0.54274   0.07210
  65        2PZ         0.00000  -0.04917  -0.43906   0.57343   0.06537
  66        3S          0.00000  -0.34365   1.04780  -2.76809  -0.93130
  67        3PX         0.20460   0.00000   0.00000   0.00000   0.00000
  68        3PY         0.00000   0.90205   0.51701  -2.85873  -0.36927
  69        3PZ         0.00000  -0.08428   1.71145  -2.93317  -0.52541
  70        4XX         0.00000   0.03467   0.01439   0.01416   0.01151
  71        4YY         0.00000   0.04365  -0.04268  -0.09346   0.06647
  72        4ZZ         0.00000  -0.10857   0.03680  -0.02757  -0.05823
  73        4XY         0.02489   0.00000   0.00000   0.00000   0.00000
  74        4XZ         0.00742   0.00000   0.00000   0.00000   0.00000
  75        4YZ         0.00000  -0.04060  -0.11629   0.01104  -0.05802
  76 6   H  1S          0.00000   0.00000   0.35319   0.00000   0.42653
  77        2S          0.00000   0.00000  -0.75431   0.00000  -1.37846
  78 7   H  1S          0.00000   0.28174   0.12346   0.04380  -0.25267
  79        2S          0.00000  -1.65185  -1.12706  -1.10621   1.42849
  80 8   H  1S          0.00000  -0.28174   0.12346  -0.04380  -0.25267
  81        2S          0.00000   1.65185  -1.12706   1.10621   1.42849
  82 9   H  1S          0.00000   0.23175  -0.30598  -0.20600  -0.09703
  83        2S          0.00000  -0.65344   1.20976   2.07852  -0.00231
  84 10  H  1S          0.00000  -0.23175  -0.30598   0.20600  -0.09703
  85        2S          0.00000   0.65344   1.20976  -2.07852  -0.00231
                          46        47        48        49        50
                        (B2)--V   (B2)--V   (A1)--V   (A1)--V   (B2)--V
     Eigenvalues --     0.98508   0.99803   1.00333   1.05701   1.21653
   1 1   N  1S          0.00000   0.00000   0.00279   0.02222   0.00000
   2        2S          0.00000   0.00000  -0.19359   0.52783   0.00000
   3        2PX         0.00000   0.00000   0.00000   0.00000   0.00000
   4        2PY         0.71150   0.38326   0.00000   0.00000  -0.20709
   5        2PZ         0.00000   0.00000  -0.39574   0.21668   0.00000
   6        3S          0.00000   0.00000   0.15611  -1.35451   0.00000
   7        3PX         0.00000   0.00000   0.00000   0.00000   0.00000
   8        3PY        -2.92854  -1.61339   0.00000   0.00000   0.62769
   9        3PZ         0.00000   0.00000   0.37427  -0.62876   0.00000
  10        4XX         0.00000   0.00000  -0.08065   0.01875   0.00000
  11        4YY         0.00000   0.00000  -0.09401   0.10844   0.00000
  12        4ZZ         0.00000   0.00000   0.07690   0.15823   0.00000
  13        4XY         0.00000   0.00000   0.00000   0.00000   0.00000
  14        4XZ         0.00000   0.00000   0.00000   0.00000   0.00000
  15        4YZ         0.06568   0.01539   0.00000   0.00000  -0.05222
  16 2   C  1S          0.00529   0.00932   0.00667   0.00822   0.01259
  17        2S         -0.82544   0.49968  -0.29960   0.81769   0.66711
  18        2PX         0.00000   0.00000   0.00000   0.00000   0.00000
  19        2PY        -0.07743   0.22068  -0.25880   0.21028  -0.06919
  20        2PZ        -0.16299  -0.22489  -0.18167  -0.20560  -0.21679
  21        3S          3.23275  -1.67312   0.86747  -2.87239  -1.84012
  22        3PX         0.00000   0.00000   0.00000   0.00000   0.00000
  23        3PY        -0.99092  -1.38275   0.20268  -0.39952  -0.02091
  24        3PZ         1.33578   1.74086   0.58444   1.40317   0.35185
  25        4XX        -0.03122   0.00627  -0.05813   0.04223  -0.00510
  26        4YY         0.01329   0.11442   0.06746   0.05845   0.06674
  27        4ZZ        -0.03747  -0.02839  -0.03202  -0.00186   0.00041
  28        4XY         0.00000   0.00000   0.00000   0.00000   0.00000
  29        4XZ         0.00000   0.00000   0.00000   0.00000   0.00000
  30        4YZ        -0.08077  -0.05757   0.03871  -0.02303  -0.00437
  31 3   C  1S         -0.00529  -0.00932   0.00667   0.00822  -0.01259
  32        2S          0.82544  -0.49968  -0.29960   0.81769  -0.66711
  33        2PX         0.00000   0.00000   0.00000   0.00000   0.00000
  34        2PY        -0.07743   0.22068   0.25880  -0.21028  -0.06919
  35        2PZ         0.16299   0.22489  -0.18167  -0.20560   0.21679
  36        3S         -3.23275   1.67312   0.86747  -2.87239   1.84012
  37        3PX         0.00000   0.00000   0.00000   0.00000   0.00000
  38        3PY        -0.99092  -1.38275  -0.20268   0.39952  -0.02091
  39        3PZ        -1.33578  -1.74086   0.58444   1.40317  -0.35185
  40        4XX         0.03122  -0.00627  -0.05813   0.04223   0.00510
  41        4YY        -0.01329  -0.11442   0.06746   0.05845  -0.06674
  42        4ZZ         0.03747   0.02839  -0.03202  -0.00186  -0.00041
  43        4XY         0.00000   0.00000   0.00000   0.00000   0.00000
  44        4XZ         0.00000   0.00000   0.00000   0.00000   0.00000
  45        4YZ        -0.08077  -0.05757  -0.03871   0.02303  -0.00437
  46 4   C  1S         -0.00807   0.00330   0.01285  -0.01714  -0.01619
  47        2S         -0.45145   0.30318  -0.42812  -0.91477  -0.94431
  48        2PX         0.00000   0.00000   0.00000   0.00000   0.00000
  49        2PY         0.00218  -0.37268  -0.36543  -0.22018   0.09103
  50        2PZ         0.12538  -0.49786   0.44555  -0.07747  -0.04481
  51        3S          0.66213  -1.23104   1.51989   3.17239   2.92478
  52        3PX         0.00000   0.00000   0.00000   0.00000   0.00000
  53        3PY         0.51526   2.48042   0.88969   1.01606   0.20519
  54        3PZ        -0.58220   2.25668  -0.84250   0.72741  -0.72884
  55        4XX         0.01336   0.01304  -0.07298  -0.00315  -0.01230
  56        4YY        -0.02245  -0.04426  -0.00185  -0.10111  -0.03043
  57        4ZZ        -0.07745   0.07896   0.01917  -0.02532  -0.06468
  58        4XY         0.00000   0.00000   0.00000   0.00000   0.00000
  59        4XZ         0.00000   0.00000   0.00000   0.00000   0.00000
  60        4YZ         0.01007   0.01324  -0.07046   0.06669   0.07502
  61 5   C  1S          0.00807  -0.00330   0.01285  -0.01714   0.01619
  62        2S          0.45145  -0.30318  -0.42812  -0.91477   0.94431
  63        2PX         0.00000   0.00000   0.00000   0.00000   0.00000
  64        2PY         0.00218  -0.37268   0.36543   0.22018   0.09103
  65        2PZ        -0.12538   0.49786   0.44555  -0.07747   0.04481
[...]
  81        2S          0.00000   0.00016   0.00000   0.00053   0.00000
  82 9   H  1S         -0.00213   0.03238   0.00000   0.03468   0.06283
  83        2S         -0.00178   0.01669   0.00000   0.02265   0.04076
  84 10  H  1S          0.00000  -0.00012   0.00000  -0.00041  -0.00008
  85        2S          0.00014  -0.00196   0.00000  -0.00691  -0.00194
                          51        52        53        54        55
  51        3S          0.20957
  52        3PX         0.00000   0.18278
  53        3PY         0.00000   0.00000   0.04708
  54        3PZ         0.00000   0.00000   0.00000   0.04445
  55        4XX        -0.00738   0.00000   0.00000   0.00000   0.00101
  56        4YY         0.00021   0.00000   0.00000   0.00000   0.00007
  57        4ZZ         0.00185   0.00000   0.00000   0.00000  -0.00001
  58        4XY         0.00000   0.00000   0.00000   0.00000   0.00000
  59        4XZ         0.00000   0.00000   0.00000   0.00000   0.00000
  60        4YZ         0.00000   0.00000   0.00000   0.00000   0.00000
  61 5   C  1S         -0.00057   0.00000  -0.00170   0.00000   0.00000
  62        2S          0.01513   0.00000   0.02384   0.00000  -0.00030
  63        2PX         0.00000   0.02509   0.00000   0.00000   0.00000
  64        2PY         0.02639   0.00000   0.01870   0.00000  -0.00074
  65        2PZ         0.00000   0.00000   0.00000   0.01304   0.00000
  66        3S          0.00428   0.00000   0.01171   0.00000  -0.00066
  67        3PX         0.00000   0.04172   0.00000   0.00000   0.00000
  68        3PY         0.01171   0.00000   0.00298   0.00000  -0.00065
  69        3PZ         0.00000   0.00000   0.00000   0.01354   0.00000
  70        4XX        -0.00066   0.00000  -0.00065   0.00000   0.00002
  71        4YY         0.00257   0.00000   0.00074   0.00000  -0.00006
  72        4ZZ        -0.00144   0.00000  -0.00164   0.00000   0.00000
  73        4XY         0.00000   0.00161   0.00000   0.00000   0.00000
  74        4XZ         0.00000   0.00000   0.00000   0.00000   0.00000
  75        4YZ         0.00000   0.00000   0.00000   0.00023   0.00000
  76 6   H  1S          0.00019   0.00000  -0.00001   0.00044   0.00000
  77        2S          0.00152   0.00000  -0.00009   0.00304   0.00000
  78 7   H  1S         -0.00178   0.00000  -0.00126  -0.00134   0.00000
  79        2S         -0.00798   0.00000  -0.00492  -0.00699   0.00009
  80 8   H  1S          0.00009   0.00000   0.00017  -0.00008   0.00000
  81        2S          0.00130   0.00000   0.00240  -0.00072   0.00000
  82 9   H  1S          0.04601   0.00000   0.01506   0.02371  -0.00079
  83        2S          0.04640   0.00000   0.01360   0.01789  -0.00100
  84 10  H  1S         -0.00303   0.00000  -0.00297   0.00021   0.00000
  85        2S         -0.01299   0.00000  -0.01163   0.00007   0.00008
                          56        57        58        59        60
  56        4YY         0.00111
  57        4ZZ        -0.00020   0.00112
  58        4XY         0.00000   0.00000   0.00065
  59        4XZ         0.00000   0.00000   0.00000   0.00059
  60        4YZ         0.00000   0.00000   0.00000   0.00000   0.00146
  61 5   C  1S         -0.00024   0.00000   0.00000   0.00000   0.00000
  62        2S          0.00347  -0.00053   0.00000   0.00000   0.00000
  63        2PX         0.00000   0.00000   0.00218   0.00000   0.00000
  64        2PY         0.00267  -0.00134   0.00000   0.00000   0.00000
  65        2PZ         0.00000   0.00000   0.00000   0.00000   0.00185
  66        3S          0.00257  -0.00144   0.00000   0.00000   0.00000
  67        3PX         0.00000   0.00000   0.00161   0.00000   0.00000
  68        3PY         0.00074  -0.00164   0.00000   0.00000   0.00000
  69        3PZ         0.00000   0.00000   0.00000   0.00000   0.00023
  70        4XX        -0.00006   0.00000   0.00000   0.00000   0.00000
  71        4YY        -0.00006  -0.00001   0.00000   0.00000   0.00000
  72        4ZZ        -0.00001   0.00002   0.00000   0.00000   0.00000
  73        4XY         0.00000   0.00000  -0.00002   0.00000   0.00000
  74        4XZ         0.00000   0.00000   0.00000  -0.00001   0.00000
  75        4YZ         0.00000   0.00000   0.00000   0.00000  -0.00026
  76 6   H  1S          0.00000   0.00000   0.00000   0.00000   0.00000
  77        2S          0.00000  -0.00001   0.00000   0.00000   0.00000
  78 7   H  1S          0.00002  -0.00002   0.00000   0.00000   0.00004
  79        2S          0.00051  -0.00054   0.00000   0.00000   0.00014
  80 8   H  1S          0.00000   0.00000   0.00000   0.00000   0.00000
  81        2S         -0.00001  -0.00001   0.00000   0.00000  -0.00001
  82 9   H  1S         -0.00008   0.00191   0.00000   0.00000   0.00386
  83        2S          0.00010   0.00201   0.00000   0.00000   0.00081
  84 10  H  1S          0.00000   0.00000   0.00000   0.00000   0.00004
  85        2S         -0.00035   0.00021   0.00000   0.00000   0.00026
                          61        62        63        64        65
  61 5   C  1S          2.05160
  62        2S         -0.01292   0.31714
  63        2PX         0.00000   0.00000   0.36136
  64        2PY         0.00000   0.00000   0.00000   0.40808
  65        2PZ         0.00000   0.00000   0.00000   0.00000   0.41519
  66        3S         -0.02875   0.18636   0.00000   0.00000   0.00000
  67        3PX         0.00000   0.00000   0.14557   0.00000   0.00000
  68        3PY         0.00000   0.00000   0.00000   0.07463   0.00000
  69        3PZ         0.00000   0.00000   0.00000   0.00000   0.06133
  70        4XX        -0.00087  -0.01176   0.00000   0.00000   0.00000
  71        4YY        -0.00142  -0.00151   0.00000   0.00000   0.00000
  72        4ZZ        -0.00156   0.00118   0.00000   0.00000   0.00000
  73        4XY         0.00000   0.00000   0.00000   0.00000   0.00000
  74        4XZ         0.00000   0.00000   0.00000   0.00000   0.00000
  75        4YZ         0.00000   0.00000   0.00000   0.00000   0.00000
  76 6   H  1S          0.00000   0.00000   0.00000   0.00000   0.00000
  77        2S         -0.00001   0.00021   0.00000   0.00000   0.00073
  78 7   H  1S          0.00000   0.00000   0.00000   0.00000   0.00000
  79        2S          0.00000   0.00016   0.00000   0.00053   0.00000
  80 8   H  1S          0.00000  -0.00014   0.00000  -0.00022  -0.00031
  81        2S          0.00017  -0.00254   0.00000  -0.00428  -0.00496
  82 9   H  1S          0.00000  -0.00012   0.00000  -0.00041  -0.00008
  83        2S          0.00014  -0.00196   0.00000  -0.00691  -0.00194
  84 10  H  1S         -0.00213   0.03238   0.00000   0.03468   0.06283
  85        2S         -0.00178   0.01669   0.00000   0.02265   0.04076
                          66        67        68        69        70
  66        3S          0.20957
  67        3PX         0.00000   0.18278
  68        3PY         0.00000   0.00000   0.04708
  69        3PZ         0.00000   0.00000   0.00000   0.04445
  70        4XX        -0.00738   0.00000   0.00000   0.00000   0.00101
  71        4YY         0.00021   0.00000   0.00000   0.00000   0.00007
  72        4ZZ         0.00185   0.00000   0.00000   0.00000  -0.00001
  73        4XY         0.00000   0.00000   0.00000   0.00000   0.00000
  74        4XZ         0.00000   0.00000   0.00000   0.00000   0.00000
  75        4YZ         0.00000   0.00000   0.00000   0.00000   0.00000
  76 6   H  1S          0.00019   0.00000  -0.00001   0.00044   0.00000
  77        2S          0.00152   0.00000  -0.00009   0.00304   0.00000
  78 7   H  1S          0.00009   0.00000   0.00017  -0.00008   0.00000
  79        2S          0.00130   0.00000   0.00240  -0.00072   0.00000
  80 8   H  1S         -0.00178   0.00000  -0.00126  -0.00134   0.00000
  81        2S         -0.00798   0.00000  -0.00492  -0.00699   0.00009
  82 9   H  1S         -0.00303   0.00000  -0.00297   0.00021   0.00000
  83        2S         -0.01299   0.00000  -0.01163   0.00007   0.00008
  84 10  H  1S          0.04601   0.00000   0.01506   0.02371  -0.00079
  85        2S          0.04640   0.00000   0.01360   0.01789  -0.00100
                          71        72        73        74        75
  71        4YY         0.00111
  72        4ZZ        -0.00020   0.00112
  73        4XY         0.00000   0.00000   0.00065
  74        4XZ         0.00000   0.00000   0.00000   0.00059
  75        4YZ         0.00000   0.00000   0.00000   0.00000   0.00146
  76 6   H  1S          0.00000   0.00000   0.00000   0.00000   0.00000
  77        2S          0.00000  -0.00001   0.00000   0.00000   0.00000
  78 7   H  1S          0.00000   0.00000   0.00000   0.00000   0.00000
  79        2S         -0.00001  -0.00001   0.00000   0.00000  -0.00001
  80 8   H  1S          0.00002  -0.00002   0.00000   0.00000   0.00004
  81        2S          0.00051  -0.00054   0.00000   0.00000   0.00014
  82 9   H  1S          0.00000   0.00000   0.00000   0.00000   0.00004
  83        2S         -0.00035   0.00021   0.00000   0.00000   0.00026
  84 10  H  1S         -0.00008   0.00191   0.00000   0.00000   0.00386
  85        2S          0.00010   0.00201   0.00000   0.00000   0.00081
                          76        77        78        79        80
  76 6   H  1S          0.20282
  77        2S          0.06538   0.06256
  78 7   H  1S         -0.00001  -0.00032   0.20923
  79        2S         -0.00053  -0.00182   0.10596   0.14158
  80 8   H  1S         -0.00001  -0.00032   0.00000   0.00000   0.20923
  81        2S         -0.00053  -0.00182   0.00000  -0.00011   0.10596
  82 9   H  1S          0.00000   0.00000   0.00000  -0.00027   0.00000
  83        2S          0.00000  -0.00013  -0.00021  -0.00136   0.00000
  84 10  H  1S          0.00000   0.00000   0.00000   0.00000   0.00000
  85        2S          0.00000  -0.00013   0.00000  -0.00013  -0.00021
                          81        82        83        84        85
  81        2S          0.14158
  82 9   H  1S          0.00000   0.20970
  83        2S         -0.00013   0.11051   0.15207
  84 10  H  1S         -0.00027   0.00000  -0.00035   0.20970
  85        2S         -0.00136  -0.00035  -0.00255   0.11051   0.15207
     Gross orbital populations:
                           1
   1 1   N  1S          1.99160
   2        2S          0.76734
   3        2PX         0.92526
   4        2PY         0.82061
   5        2PZ         0.82096
   6        3S          0.82491
   7        3PX         0.65899
   8        3PY         0.34998
   9        3PZ         0.36980
  10        4XX        -0.02587
  11        4YY         0.00013
  12        4ZZ         0.02511
  13        4XY         0.01063
  14        4XZ         0.00235
  15        4YZ         0.00879
  16 2   C  1S          1.99160
  17        2S          0.69980
  18        2PX         0.63881
  19        2PY         0.70477
  20        2PZ         0.73773
  21        3S          0.42204
  22        3PX         0.45506
  23        3PY         0.12672
  24        3PZ         0.17902
  25        4XX        -0.02690
  26        4YY         0.01529
  27        4ZZ        -0.00031
  28        4XY         0.00513
  29        4XZ         0.00968
  30        4YZ         0.02120
  31 3   C  1S          1.99160
  32        2S          0.69980
  33        2PX         0.63881
  34        2PY         0.70477
  35        2PZ         0.73773
  36        3S          0.42204
  37        3PX         0.45506
  38        3PY         0.12672
  39        3PZ         0.17902
  40        4XX        -0.02690
  41        4YY         0.01529
  42        4ZZ        -0.00031
  43        4XY         0.00513
  44        4XZ         0.00968
  45        4YZ         0.02120
  46 4   C  1S          1.99176
  47        2S          0.69446
  48        2PX         0.61347
  49        2PY         0.73706
  50        2PZ         0.75023
  51        3S          0.50969
  52        3PX         0.46911
  53        3PY         0.20382
  54        3PZ         0.20183
  55        4XX        -0.02549
  56        4YY         0.00297
  57        4ZZ         0.00968
  58        4XY         0.00543
  59        4XZ         0.00470
  60        4YZ         0.01249
  61 5   C  1S          1.99176
  62        2S          0.69446
  63        2PX         0.61347
  64        2PY         0.73706
  65        2PZ         0.75023
  66        3S          0.50969
  67        3PX         0.46911
  68        3PY         0.20382
  69        3PZ         0.20183
  70        4XX        -0.02549
  71        4YY         0.00297
  72        4ZZ         0.00968
  73        4XY         0.00543
  74        4XZ         0.00470
  75        4YZ         0.01249
  76 6   H  1S          0.50257
  77        2S          0.16427
  78 7   H  1S          0.52312
  79        2S          0.33344
  80 8   H  1S          0.52312
  81        2S          0.33344
  82 9   H  1S          0.52369
  83        2S          0.35020
  84 10  H  1S          0.52369
  85        2S          0.35020
          Condensed to atoms (all electrons):
 Mulliken charges:
               1
     1  N   -0.550614
     2  C    0.020371
     3  C    0.020371
     4  C   -0.181200
     5  C   -0.181200
     6  H    0.333166
     7  H    0.143440
     8  H    0.143440
     9  H    0.126112
    10  H    0.126112
 Sum of Mulliken charges =   0.00000
 Mulliken charges with hydrogens summed into heavy atoms:
               1
     1  N   -0.217447
     2  C    0.163812
     3  C    0.163812
     4  C   -0.055088
     5  C   -0.055088
 Electronic spatial extent (au):  <R**2>=            303.3147
 Charge=              0.0000 electrons
 Dipole moment (field-independent basis, Debye):
    X=              0.0000    Y=              0.0000    Z=              1.9360  Tot=              1.9360
 Orbital energies and kinetic energies (alpha):
                                 1                 2
   1         (A1)--O         -14.444935         21.956567
   2         (B2)--O         -10.268401         15.879013
   3         (A1)--O         -10.268375         15.878074
   4         (A1)--O         -10.230867         15.873690
   5         (B2)--O         -10.230412         15.883549
   6         (A1)--O          -1.048678          1.825505
   7         (A1)--O          -0.841614          1.656591
   8         (B2)--O          -0.789558          1.660063
   9         (A1)--O          -0.653378          1.464733
  10         (B2)--O          -0.627284          1.479750
  11         (A1)--O          -0.607712          1.186340
  12         (A1)--O          -0.486381          1.421155
  13         (B2)--O          -0.478787          1.414627
  14         (B1)--O          -0.466941          1.195151
  15         (B2)--O          -0.443627          1.364967
  16         (A1)--O          -0.427289          1.375497
  17         (B1)--O          -0.290083          1.349214
  18         (A2)--O          -0.257304          1.188949
  19         (B1)--V           0.105397          1.573911
  20         (A1)--V           0.130532          1.021872
  21         (A2)--V           0.154048          1.397375
  22         (A1)--V           0.194756          1.099606
  23         (B2)--V           0.218217          1.004018
  24         (A1)--V           0.226566          1.096014
  25         (B2)--V           0.237315          1.062759
  26         (B2)--V           0.300968          1.643276
  27         (A1)--V           0.304141          1.448653
  28         (A1)--V           0.397370          1.369237
  29         (B2)--V           0.427979          1.317960
  30         (B2)--V           0.522867          2.111605
  31         (A1)--V           0.603953          1.491248
  32         (B1)--V           0.617851          2.027943
  33         (A1)--V           0.649877          2.552691
  34         (A2)--V           0.665156          2.006961
  35         (B2)--V           0.676123          2.321921
  36         (A1)--V           0.684233          2.190003
  37         (B1)--V           0.695762          2.151387
  38         (B2)--V           0.706638          2.450797
  39         (A1)--V           0.717096          2.210955
  40         (A2)--V           0.760996          2.284857
  41         (B1)--V           0.842611          2.745910
  42         (B2)--V           0.882306          2.489647
  43         (A1)--V           0.898645          2.603409
  44         (B2)--V           0.928643          2.900594
  45         (A1)--V           0.933767          3.030949
  46         (B2)--V           0.985079          2.696956
  47         (B2)--V           0.998032          2.642004
  48         (A1)--V           1.003335          2.684009
  49         (A1)--V           1.057015          2.339209
  50         (B2)--V           1.216532          2.448991
  51         (A1)--V           1.237279          2.291577
  52         (B2)--V           1.323681          2.334799
  53         (A1)--V           1.362928          2.369063
  54         (B1)--V           1.417634          2.506567
  55         (A2)--V           1.446651          2.528402
  56         (B1)--V           1.475042          2.522681
  57         (A1)--V           1.568822          2.813467
  58         (B2)--V           1.577244          2.542838
  59         (A2)--V           1.631558          2.764551
  60         (B1)--V           1.633028          2.765293
  61         (A1)--V           1.870902          3.052665
  62         (A1)--V           1.961171          3.259611
  63         (A1)--V           2.081875          3.537290
  64         (B2)--V           2.099888          3.565636
  65         (B2)--V           2.135855          3.781785
  66         (A1)--V           2.197958          3.761233
  67         (A2)--V           2.296272          3.428905
  68         (B1)--V           2.325331          3.450676
  69         (B2)--V           2.340406          3.593123
  70         (A1)--V           2.349907          3.776500
  71         (A2)--V           2.417555          3.560764
  72         (B1)--V           2.425285          3.587914
  73         (A2)--V           2.647592          3.811644
  74         (A1)--V           2.680089          4.350532
  75         (B2)--V           2.716886          4.311559
  76         (B2)--V           2.777735          4.548008
  77         (A1)--V           2.779270          4.635878
  78         (B2)--V           3.051074          4.956991
  79         (B2)--V           3.097413          4.561593
  80         (A1)--V           3.110853          4.604843
  81         (A1)--V           3.989547         10.299146
  82         (A1)--V           4.206488         10.197483
  83         (B2)--V           4.215408         10.164109
  84         (A1)--V           4.420465         10.075724
  85         (B2)--V           4.551637         10.218643
 Total kinetic energy from orbitals= 2.081068710233D+02
 1\1\GINC-NODE16\SP\RCAM-B3LYP\6-31G(d)\C4H5N1\ROOT\05-Oct-2016\0\\#T C
 AM-B3LYP 6-31G* gfprint pop(full) Density\\\0,1\N,0,0.,1.1398527,0.\C,
 0,1.120226,0.3511787,0.\C,0,-1.120226,0.3511787,0.\C,0,0.710949,-0.957
 6913,0.\C,0,-0.710949,-0.9576913,0.\H,0,0.,2.1466497,0.\H,0,2.10865,0.
 7860327,0.\H,0,-2.10865,0.7860327,0.\H,0,1.358901,-1.8227713,0.\H,0,-1
 .358901,-1.8227713,0.\\Version=ES64L-G09RevD.01\State=1-A1\HF=-210.048
 2503\RMSD=2.039e-09\Dipole=0.,0.7616811,0.\Quadrupole=0.8422193,3.1964
 3,-4.0386493,0.,0.,0.\PG=C02V [C2(N1H1),SGV(C4H4)]\\@


 THE TEST OF A FIRST RATE INTELLIGENCE IS THE ABILITY TO HOLD TWO OPPOSED
 IDEAS IN THE MIND AT THE SAME TIME, AND STILL RETAIN THE ABILITY TO FUNCTION.
 ONE SHOULD, FOR EXAMPLE, BE ABLE TO SEE THAT THINGS ARE HOPELESS AND YET BE
 DETERMINED TO MAKE THEM OTHERWISE.

                                                       -- F. SCOTT FITZGERALD
 Job cpu time:       0 days  0 hours  0 minutes 25.9 seconds.
 File lengths (MBytes):  RWF=      5 Int=      0 D2E=      0 Chk=      1 Scr=      1
 Normal termination of Gaussian 09 at Wed Oct  5 14:59:03 2016.
