 Entering Gaussian System

 Standard orientation:



 -------------------------------------------------------
     1  16    0     0.000000     0.000000     0.000000
     2   9    0     0.000000     0.000000     1.600359
     3   9    0     0.000000     1.600359     0.000000
     4   9    0     0.000000     0.000000    -1.600359
     5   9    0     0.000000    -1.600359     0.000000
     6   9    0     1.600359     0.000000     0.000000
     7   9    0    -1.600359     0.000000     0.000000
 -------------------------------------------------------

 AO basis set (Overlap normalization):
 Atom  S1     Shell     1 S    6
   2.1917100000e+04   1.8692408490e-03
   3.3014900000e+03   1.4230306460e-02
   7.5414600000e+02   6.9696231660e-02
   2.1271100000e+02   2.3848710830e-01
   6.7989600000e+01   4.8330721950e-01
   2.3051500000e+01   3.3807415360e-01
 Atom  S1     Shell     2 SP   6
   4.2373500000e+02  -2.3767704990e-03   4.0610099820e-03
   1.0071000000e+02  -3.1693006650e-02   3.0681299860e-02
   3.2159900000e+01  -1.1331702380e-01   1.3045199940e-01
   1.1807900000e+01   5.6090011770e-02   3.2720499850e-01
   4.6311000000e+00   5.9225512430e-01   4.5285099800e-01
   1.8702500000e+00   4.5500609550e-01   2.5604199890e-01
 Atom  S1     Shell     3 SP   3
   2.6158400000e+00  -2.5037311420e-01  -1.4510489550e-02
   9.2216700000e-01   6.6956763100e-02   3.1026277650e-01
   3.4128700000e-01   1.0545062690e+00   7.5448245650e-01
 Atom  S1     Shell     4 SP   1
   1.1716700000e-01   1.0000000000e+00   1.0000000000e+00
 Atom  S1     Shell     5 D    1
   6.5000000000e-01   1.0000000000e+00
 Atom  F2     Shell     6 S    6
   7.0017130900e+03   1.8196169010e-03
   1.0513660900e+03   1.3916079610e-02
   2.3928569000e+02   6.8405324530e-02
   6.7397445300e+01   2.3318576010e-01
   2.1519957300e+01   4.7126743920e-01
   7.4031013000e+00   3.5661854620e-01
 Atom  F2     Shell     7 SP   3
   2.0847952800e+01  -1.0850697510e-01   7.1628724240e-02
   4.8083083400e+00  -1.4645165810e-01   3.4591210270e-01
   1.3440698600e+00   1.1286885810e+00   7.2246995640e-01
 Atom  F2     Shell     8 SP   1
   3.5815139300e-01   1.0000000000e+00   1.0000000000e+00
 Atom  F2     Shell     9 D    1
   8.0000000000e-01   1.0000000000e+00
 Atom  F3     Shell    10 S    6
   7.0017130900e+03   1.8196169010e-03
   1.0513660900e+03   1.3916079610e-02
   2.3928569000e+02   6.8405324530e-02
   6.7397445300e+01   2.3318576010e-01
   2.1519957300e+01   4.7126743920e-01
   7.4031013000e+00   3.5661854620e-01
 Atom  F3     Shell    11 SP   3
   2.0847952800e+01  -1.0850697510e-01   7.1628724240e-02
   4.8083083400e+00  -1.4645165810e-01   3.4591210270e-01
   1.3440698600e+00   1.1286885810e+00   7.2246995640e-01
 Atom  F3     Shell    12 SP   1
   3.5815139300e-01   1.0000000000e+00   1.0000000000e+00
 Atom  F3     Shell    13 D    1
   8.0000000000e-01   1.0000000000e+00
 Atom  F4     Shell    14 S    6
   7.0017130900e+03   1.8196169010e-03
   1.0513660900e+03   1.3916079610e-02
   2.3928569000e+02   6.8405324530e-02
   6.7397445300e+01   2.3318576010e-01
   2.1519957300e+01   4.7126743920e-01
   7.4031013000e+00   3.5661854620e-01
 Atom  F4     Shell    15 SP   3
   2.0847952800e+01  -1.0850697510e-01   7.1628724240e-02
   4.8083083400e+00  -1.4645165810e-01   3.4591210270e-01
   1.3440698600e+00   1.1286885810e+00   7.2246995640e-01
 Atom  F4     Shell    16 SP   1
   3.5815139300e-01   1.0000000000e+00   1.0000000000e+00
 Atom  F4     Shell    17 D    1
   8.0000000000e-01   1.0000000000e+00
 Atom  F5     Shell    18 S    6
   7.0017130900e+03   1.8196169010e-03
   1.0513660900e+03   1.3916079610e-02
   2.3928569000e+02   6.8405324530e-02
   6.7397445300e+01   2.3318576010e-01
   2.1519957300e+01   4.7126743920e-01
   7.4031013000e+00   3.5661854620e-01
 Atom  F5     Shell    19 SP   3
   2.0847952800e+01  -1.0850697510e-01   7.1628724240e-02
   4.8083083400e+00  -1.4645165810e-01   3.4591210270e-01
   1.3440698600e+00   1.1286885810e+00   7.2246995640e-01
 Atom  F5     Shell    20 SP   1
   3.5815139300e-01   1.0000000000e+00   1.0000000000e+00
 Atom  F5     Shell    21 D    1
   8.0000000000e-01   1.0000000000e+00
 Atom  F6     Shell    22 S    6
   7.0017130900e+03   1.8196169010e-03
   1.0513660900e+03   1.3916079610e-02
   2.3928569000e+02   6.8405324530e-02
   6.7397445300e+01   2.3318576010e-01
   2.1519957300e+01   4.7126743920e-01
   7.4031013000e+00   3.5661854620e-01
 Atom  F6     Shell    23 SP   3
   2.0847952800e+01  -1.0850697510e-01   7.1628724240e-02
   4.8083083400e+00  -1.4645165810e-01   3.4591210270e-01
   1.3440698600e+00   1.1286885810e+00   7.2246995640e-01
 Atom  F6     Shell    24 SP   1
   3.5815139300e-01   1.0000000000e+00   1.0000000000e+00
 Atom  F6     Shell    25 D    1
   8.0000000000e-01   1.0000000000e+00
 Atom  F7     Shell    26 S    6
   7.0017130900e+03   1.8196169010e-03
   1.0513660900e+03   1.3916079610e-02
   2.3928569000e+02   6.8405324530e-02
   6.7397445300e+01   2.3318576010e-01
   2.1519957300e+01   4.7126743920e-01
   7.4031013000e+00   3.5661854620e-01
 Atom  F7     Shell    27 SP   3
   2.0847952800e+01  -1.0850697510e-01   7.1628724240e-02
   4.8083083400e+00  -1.4645165810e-01   3.4591210270e-01
   1.3440698600e+00   1.1286885810e+00   7.2246995640e-01
 Atom  F7     Shell    28 SP   1
   3.5815139300e-01   1.0000000000e+00   1.0000000000e+00
 Atom  F7     Shell    29 D    1
   8.0000000000e-01   1.0000000000e+00

 Molecular Orbital Coefficients:
                           1         2         3         4         5
                          3S        3Z        3Z2       4S        4Z
     Eigenvalues --        0         0         0         0         0
    1 S1      .S        0.00000   0.00000   0.00000   0.00000   0.00000
    2 S1      .S        0.00000   0.00000   0.00000   0.00000   0.00000
    3 S1      .X        0.00000   0.00000   0.00000   0.00000   0.00000
    4 S1      .Y        0.00000   0.00000   0.00000   0.00000   0.00000
    5 S1      .Z        0.00000   0.00000   0.00000   0.00000   0.00000
    6 S1      .S        1.00000   0.00000   0.00000   0.00000   0.00000
    7 S1      .X        0.00000   0.00000   0.00000   0.00000   0.00000
    8 S1      .Y        0.00000   0.00000   0.00000   0.00000   0.00000
    9 S1      .Z        0.00000   1.00000   0.00000   0.00000   0.00000
   10 S1      .S        0.00000   0.00000   0.00000   1.00000   0.00000
   11 S1      .X        0.00000   0.00000   0.00000   0.00000   0.00000
   12 S1      .Y        0.00000   0.00000   0.00000   0.00000   0.00000
   13 S1      .Z        0.00000   0.00000   0.00000   0.00000   1.00000
   14 S1      .XX       0.00000   0.00000  -0.50000   0.00000   0.00000
   15 S1      .YY       0.00000   0.00000  -0.50000   0.00000   0.00000
   16 S1      .ZZ       0.00000   0.00000   1.00000   0.00000   0.00000
   17 S1      .XY       0.00000   0.00000   0.00000   0.00000   0.00000
   18 S1      .XZ       0.00000   0.00000   0.00000   0.00000   0.00000
   19 S1      .YZ       0.00000   0.00000   0.00000   0.00000   0.00000
   20 F2      .S        0.00000   0.00000   0.00000   0.00000   0.00000
   21 F2      .S        0.00000   0.00000   0.00000   0.00000   0.00000
   22 F2      .X        0.00000   0.00000   0.00000   0.00000   0.00000
   23 F2      .Y        0.00000   0.00000   0.00000   0.00000   0.00000
   24 F2      .Z        0.00000   0.00000   0.00000   0.00000   0.00000
   25 F2      .S        0.00000   0.00000   0.00000   0.00000   0.00000
   26 F2      .X        0.00000   0.00000   0.00000   0.00000   0.00000
   27 F2      .Y        0.00000   0.00000   0.00000   0.00000   0.00000
   28 F2      .Z        0.00000   0.00000   0.00000   0.00000   0.00000
   29 F2      .XX       0.00000   0.00000   0.00000   0.00000   0.00000
   30 F2      .YY       0.00000   0.00000   0.00000   0.00000   0.00000
   31 F2      .ZZ       0.00000   0.00000   0.00000   0.00000   0.00000
   32 F2      .XY       0.00000   0.00000   0.00000   0.00000   0.00000
   33 F2      .XZ       0.00000   0.00000   0.00000   0.00000   0.00000
   34 F2      .YZ       0.00000   0.00000   0.00000   0.00000   0.00000
   35 F3      .S        0.00000   0.00000   0.00000   0.00000   0.00000
   36 F3      .S        0.00000   0.00000   0.00000   0.00000   0.00000
   37 F3      .X        0.00000   0.00000   0.00000   0.00000   0.00000
   38 F3      .Y        0.00000   0.00000   0.00000   0.00000   0.00000
   39 F3      .Z        0.00000   0.00000   0.00000   0.00000   0.00000
   40 F3      .S        0.00000   0.00000   0.00000   0.00000   0.00000
   41 F3      .X        0.00000   0.00000   0.00000   0.00000   0.00000
   42 F3      .Y        0.00000   0.00000   0.00000   0.00000   0.00000
   43 F3      .Z        0.00000   0.00000   0.00000   0.00000   0.00000
   44 F3      .XX       0.00000   0.00000   0.00000   0.00000   0.00000
   45 F3      .YY       0.00000   0.00000   0.00000   0.00000   0.00000
   46 F3      .ZZ       0.00000   0.00000   0.00000   0.00000   0.00000
   47 F3      .XY       0.00000   0.00000   0.00000   0.00000   0.00000
   48 F3      .XZ       0.00000   0.00000   0.00000   0.00000   0.00000
   49 F3      .YZ       0.00000   0.00000   0.00000   0.00000   0.00000
   50 F4      .S        0.00000   0.00000   0.00000   0.00000   0.00000
   51 F4      .S        0.00000   0.00000   0.00000   0.00000   0.00000
   52 F4      .X        0.00000   0.00000   0.00000   0.00000   0.00000
   53 F4      .Y        0.00000   0.00000   0.00000   0.00000   0.00000
   54 F4      .Z        0.00000   0.00000   0.00000   0.00000   0.00000
   55 F4      .S        0.00000   0.00000   0.00000   0.00000   0.00000
   56 F4      .X        0.00000   0.00000   0.00000   0.00000   0.00000
   57 F4      .Y        0.00000   0.00000   0.00000   0.00000   0.00000
   58 F4      .Z        0.00000   0.00000   0.00000   0.00000   0.00000
   59 F4      .XX       0.00000   0.00000   0.00000   0.00000   0.00000
   60 F4      .YY       0.00000   0.00000   0.00000   0.00000   0.00000
   61 F4      .ZZ       0.00000   0.00000   0.00000   0.00000   0.00000
   62 F4      .XY       0.00000   0.00000   0.00000   0.00000   0.00000
   63 F4      .XZ       0.00000   0.00000   0.00000   0.00000   0.00000
   64 F4      .YZ       0.00000   0.00000   0.00000   0.00000   0.00000
   65 F5      .S        0.00000   0.00000   0.00000   0.00000   0.00000
   66 F5      .S        0.00000   0.00000   0.00000   0.00000   0.00000
   67 F5      .X        0.00000   0.00000   0.00000   0.00000   0.00000
   68 F5      .Y        0.00000   0.00000   0.00000   0.00000   0.00000
   69 F5      .Z        0.00000   0.00000   0.00000   0.00000   0.00000
   70 F5      .S        0.00000   0.00000   0.00000   0.00000   0.00000
   71 F5      .X        0.00000   0.00000   0.00000   0.00000   0.00000
   72 F5      .Y        0.00000   0.00000   0.00000   0.00000   0.00000
   73 F5      .Z        0.00000   0.00000   0.00000   0.00000   0.00000
   74 F5      .XX       0.00000   0.00000   0.00000   0.00000   0.00000
   75 F5      .YY       0.00000   0.00000   0.00000   0.00000   0.00000
   76 F5      .ZZ       0.00000   0.00000   0.00000   0.00000   0.00000
   77 F5      .XY       0.00000   0.00000   0.00000   0.00000   0.00000
   78 F5      .XZ       0.00000   0.00000   0.00000   0.00000   0.00000
   79 F5      .YZ       0.00000   0.00000   0.00000   0.00000   0.00000
   80 F6      .S        0.00000   0.00000   0.00000   0.00000   0.00000
   81 F6      .S        0.00000   0.00000   0.00000   0.00000   0.00000
   82 F6      .X        0.00000   0.00000   0.00000   0.00000   0.00000
   83 F6      .Y        0.00000   0.00000   0.00000   0.00000   0.00000
   84 F6      .Z        0.00000   0.00000   0.00000   0.00000   0.00000
   85 F6      .S        0.00000   0.00000   0.00000   0.00000   0.00000
   86 F6      .X        0.00000   0.00000   0.00000   0.00000   0.00000
   87 F6      .Y        0.00000   0.00000   0.00000   0.00000   0.00000
   88 F6      .Z        0.00000   0.00000   0.00000   0.00000   0.00000
   89 F6      .XX       0.00000   0.00000   0.00000   0.00000   0.00000
   90 F6      .YY       0.00000   0.00000   0.00000   0.00000   0.00000
   91 F6      .ZZ       0.00000   0.00000   0.00000   0.00000   0.00000
   92 F6      .XY       0.00000   0.00000   0.00000   0.00000   0.00000
   93 F6      .XZ       0.00000   0.00000   0.00000   0.00000   0.00000
   94 F6      .YZ       0.00000   0.00000   0.00000   0.00000   0.00000
   95 F7      .S        0.00000   0.00000   0.00000   0.00000   0.00000
   96 F7      .S        0.00000   0.00000   0.00000   0.00000   0.00000
   97 F7      .X        0.00000   0.00000   0.00000   0.00000   0.00000
   98 F7      .Y        0.00000   0.00000   0.00000   0.00000   0.00000
   99 F7      .Z        0.00000   0.00000   0.00000   0.00000   0.00000
  100 F7      .S        0.00000   0.00000   0.00000   0.00000   0.00000
  101 F7      .X        0.00000   0.00000   0.00000   0.00000   0.00000
  102 F7      .Y        0.00000   0.00000   0.00000   0.00000   0.00000
  103 F7      .Z        0.00000   0.00000   0.00000   0.00000   0.00000
  104 F7      .XX       0.00000   0.00000   0.00000   0.00000   0.00000
  105 F7      .YY       0.00000   0.00000   0.00000   0.00000   0.00000
  106 F7      .ZZ       0.00000   0.00000   0.00000   0.00000   0.00000
  107 F7      .XY       0.00000   0.00000   0.00000   0.00000   0.00000
  108 F7      .XZ       0.00000   0.00000   0.00000   0.00000   0.00000
  109 F7      .YZ       0.00000   0.00000   0.00000   0.00000   0.00000















































































































































































































































































































































































































































































































































































































































































































































































































































































































































































































































































































































































































































































































































































































































































































































































































































































































































































































































































































































































































































































































































































































































































































































































































































