 Entering Gaussian System

 Standard orientation:



 -------------------------------------------------------
     1  16    0     0.000000     0.000000     0.000000
     2   9    0     0.000000     0.000000     1.600359
     3   9    0     0.000000     1.600359     0.000000
     4   9    0     0.000000     0.000000    -1.600359
     5   9    0     0.000000    -1.600359     0.000000
     6   9    0     1.600359     0.000000     0.000000
     7   9    0    -1.600359     0.000000     0.000000
 -------------------------------------------------------

 AO basis set (Overlap normalization):
 Atom  S1     Shell     1 S    6
   2.1917100000e+04   1.8692408490e-03
   3.3014900000e+03   1.4230306460e-02
   7.5414600000e+02   6.9696231660e-02
   2.1271100000e+02   2.3848710830e-01
   6.7989600000e+01   4.8330721950e-01
   2.3051500000e+01   3.3807415360e-01
 Atom  S1     Shell     2 SP   6
   4.2373500000e+02  -2.3767704990e-03   4.0610099820e-03
   1.0071000000e+02  -3.1693006650e-02   3.0681299860e-02
   3.2159900000e+01  -1.1331702380e-01   1.3045199940e-01
   1.1807900000e+01   5.6090011770e-02   3.2720499850e-01
   4.6311000000e+00   5.9225512430e-01   4.5285099800e-01
   1.8702500000e+00   4.5500609550e-01   2.5604199890e-01
 Atom  S1     Shell     3 SP   3
   2.6158400000e+00  -2.5037311420e-01  -1.4510489550e-02
   9.2216700000e-01   6.6956763100e-02   3.1026277650e-01
   3.4128700000e-01   1.0545062690e+00   7.5448245650e-01
 Atom  S1     Shell     4 SP   1
   1.1716700000e-01   1.0000000000e+00   1.0000000000e+00
 Atom  S1     Shell     5 D    1
   6.5000000000e-01   1.0000000000e+00
 Atom  F2     Shell     6 S    6
   7.0017130900e+03   1.8196169010e-03
   1.0513660900e+03   1.3916079610e-02
   2.3928569000e+02   6.8405324530e-02
   6.7397445300e+01   2.3318576010e-01
   2.1519957300e+01   4.7126743920e-01
   7.4031013000e+00   3.5661854620e-01
 Atom  F2     Shell     7 SP   3
   2.0847952800e+01  -1.0850697510e-01   7.1628724240e-02
   4.8083083400e+00  -1.4645165810e-01   3.4591210270e-01
   1.3440698600e+00   1.1286885810e+00   7.2246995640e-01
 Atom  F2     Shell     8 SP   1
   3.5815139300e-01   1.0000000000e+00   1.0000000000e+00
 Atom  F2     Shell     9 D    1
   8.0000000000e-01   1.0000000000e+00
 Atom  F3     Shell    10 S    6
   7.0017130900e+03   1.8196169010e-03
   1.0513660900e+03   1.3916079610e-02
   2.3928569000e+02   6.8405324530e-02
   6.7397445300e+01   2.3318576010e-01
   2.1519957300e+01   4.7126743920e-01
   7.4031013000e+00   3.5661854620e-01
 Atom  F3     Shell    11 SP   3
   2.0847952800e+01  -1.0850697510e-01   7.1628724240e-02
   4.8083083400e+00  -1.4645165810e-01   3.4591210270e-01
   1.3440698600e+00   1.1286885810e+00   7.2246995640e-01
 Atom  F3     Shell    12 SP   1
   3.5815139300e-01   1.0000000000e+00   1.0000000000e+00
 Atom  F3     Shell    13 D    1
   8.0000000000e-01   1.0000000000e+00
 Atom  F4     Shell    14 S    6
   7.0017130900e+03   1.8196169010e-03
   1.0513660900e+03   1.3916079610e-02
   2.3928569000e+02   6.8405324530e-02
   6.7397445300e+01   2.3318576010e-01
   2.1519957300e+01   4.7126743920e-01
   7.4031013000e+00   3.5661854620e-01
 Atom  F4     Shell    15 SP   3
   2.0847952800e+01  -1.0850697510e-01   7.1628724240e-02
   4.8083083400e+00  -1.4645165810e-01   3.4591210270e-01
   1.3440698600e+00   1.1286885810e+00   7.2246995640e-01
 Atom  F4     Shell    16 SP   1
   3.5815139300e-01   1.0000000000e+00   1.0000000000e+00
 Atom  F4     Shell    17 D    1
   8.0000000000e-01   1.0000000000e+00
 Atom  F5     Shell    18 S    6
   7.0017130900e+03   1.8196169010e-03
   1.0513660900e+03   1.3916079610e-02
   2.3928569000e+02   6.8405324530e-02
   6.7397445300e+01   2.3318576010e-01
   2.1519957300e+01   4.7126743920e-01
   7.4031013000e+00   3.5661854620e-01
 Atom  F5     Shell    19 SP   3
   2.0847952800e+01  -1.0850697510e-01   7.1628724240e-02
   4.8083083400e+00  -1.4645165810e-01   3.4591210270e-01
   1.3440698600e+00   1.1286885810e+00   7.2246995640e-01
 Atom  F5     Shell    20 SP   1
   3.5815139300e-01   1.0000000000e+00   1.0000000000e+00
 Atom  F5     Shell    21 D    1
   8.0000000000e-01   1.0000000000e+00
 Atom  F6     Shell    22 S    6
   7.0017130900e+03   1.8196169010e-03
   1.0513660900e+03   1.3916079610e-02
   2.3928569000e+02   6.8405324530e-02
   6.7397445300e+01   2.3318576010e-01
   2.1519957300e+01   4.7126743920e-01
   7.4031013000e+00   3.5661854620e-01
 Atom  F6     Shell    23 SP   3
   2.0847952800e+01  -1.0850697510e-01   7.1628724240e-02
   4.8083083400e+00  -1.4645165810e-01   3.4591210270e-01
   1.3440698600e+00   1.1286885810e+00   7.2246995640e-01
 Atom  F6     Shell    24 SP   1
   3.5815139300e-01   1.0000000000e+00   1.0000000000e+00
 Atom  F6     Shell    25 D    1
   8.0000000000e-01   1.0000000000e+00
 Atom  F7     Shell    26 S    6
   7.0017130900e+03   1.8196169010e-03
   1.0513660900e+03   1.3916079610e-02
   2.3928569000e+02   6.8405324530e-02
   6.7397445300e+01   2.3318576010e-01
   2.1519957300e+01   4.7126743920e-01
   7.4031013000e+00   3.5661854620e-01
 Atom  F7     Shell    27 SP   3
   2.0847952800e+01  -1.0850697510e-01   7.1628724240e-02
   4.8083083400e+00  -1.4645165810e-01   3.4591210270e-01
   1.3440698600e+00   1.1286885810e+00   7.2246995640e-01
 Atom  F7     Shell    28 SP   1
   3.5815139300e-01   1.0000000000e+00   1.0000000000e+00
 Atom  F7     Shell    29 D    1
   8.0000000000e-01   1.0000000000e+00

 Molecular Orbital Coefficients:
                           1         2         3         4         5
                           O         O         O         O         O    
     Eigenvalues --  -2373.2937-668.29378-668.29378-668.29378-668.29378
    1 S1      .S        1.02872  -0.00016  -0.00016  -0.00016  -0.00016
    2 S1      .S       -0.15256   0.00093   0.00093   0.00093   0.00093
    3 S1      .X        0.00000  -0.00000  -0.00000   0.00199  -0.00199
    4 S1      .Y        0.00000  -0.00000  -0.00000  -0.00000  -0.00000
    5 S1      .Z        0.00000  -0.00199   0.00199  -0.00000  -0.00000
    6 S1      .S       -0.02928  -0.00076  -0.00076  -0.00076  -0.00076
    7 S1      .X       -0.00000   0.00000   0.00000  -0.00423   0.00423
    8 S1      .Y       -0.00000   0.00000   0.00000   0.00000   0.00000
    9 S1      .Z       -0.00000   0.00423  -0.00423   0.00000   0.00000
   10 S1      .S       -0.00119  -0.00183  -0.00183  -0.00183  -0.00183
   11 S1      .X       -0.00000  -0.00000  -0.00000  -0.00087   0.00087
   12 S1      .Y       -0.00000  -0.00000  -0.00000  -0.00000  -0.00000
   13 S1      .Z       -0.00000   0.00087  -0.00087   0.00000   0.00000
   14 S1      .XX       0.01026   0.00144   0.00144  -0.00202  -0.00202
   15 S1      .YY       0.01026   0.00144   0.00144   0.00144   0.00144
   16 S1      .ZZ       0.01026  -0.00202  -0.00202   0.00144   0.00144
   17 S1      .XY      -0.00000   0.00000  -0.00000   0.00000  -0.00000
   18 S1      .XZ      -0.00000   0.00000  -0.00000   0.00000  -0.00000
   19 S1      .YZ      -0.00000  -0.00000   0.00000   0.00000  -0.00000
   20 F2      .S       -0.00024   0.00006   1.01069  -0.00015  -0.00015
   21 F2      .S       -0.00042   0.00048  -0.03102   0.00003   0.00003
   22 F2      .X        0.00000  -0.00000  -0.00000   0.00059  -0.00059
   23 F2      .Y        0.00000  -0.00000  -0.00000  -0.00000  -0.00000
   24 F2      .Z       -0.00056  -0.00018  -0.00192  -0.00056  -0.00056
   25 F2      .S        0.00307  -0.00131  -0.03109   0.00116   0.00116
   26 F2      .X        0.00000  -0.00000  -0.00000   0.00058  -0.00058
   27 F2      .Y        0.00000  -0.00000  -0.00000  -0.00000  -0.00000
   28 F2      .Z       -0.00128   0.00000  -0.00062  -0.00050  -0.00050
   29 F2      .XX      -0.00046   0.00027  -0.00923  -0.00033  -0.00033
   30 F2      .YY      -0.00046   0.00027  -0.00923  -0.00015  -0.00015
   31 F2      .ZZ      -0.00043   0.00050  -0.01139  -0.00017  -0.00017
   32 F2      .XY      -0.00000   0.00000  -0.00000  -0.00000   0.00000
   33 F2      .XZ      -0.00000  -0.00000  -0.00000  -0.00002   0.00002
   34 F2      .YZ      -0.00000  -0.00000  -0.00000  -0.00000  -0.00000
   35 F3      .S       -0.00024  -0.00015  -0.00015  -0.00015  -0.00015
   36 F3      .S       -0.00042   0.00003   0.00003   0.00003   0.00003
   37 F3      .X        0.00000  -0.00000  -0.00000   0.00059  -0.00059
   38 F3      .Y       -0.00056  -0.00056  -0.00056  -0.00056  -0.00056
   39 F3      .Z        0.00000  -0.00059   0.00059  -0.00000  -0.00000
   40 F3      .S        0.00307   0.00116   0.00116   0.00116   0.00116
   41 F3      .X        0.00000  -0.00000  -0.00000   0.00058  -0.00058
   42 F3      .Y       -0.00128  -0.00050  -0.00050  -0.00050  -0.00050
   43 F3      .Z        0.00000  -0.00058   0.00058   0.00000   0.00000
   44 F3      .XX      -0.00046  -0.00015  -0.00015  -0.00033  -0.00033
   45 F3      .YY      -0.00043  -0.00017  -0.00017  -0.00017  -0.00017
   46 F3      .ZZ      -0.00046  -0.00033  -0.00033  -0.00015  -0.00015
   47 F3      .XY      -0.00000  -0.00000  -0.00000  -0.00002   0.00002
   48 F3      .XZ      -0.00000   0.00000  -0.00000  -0.00000   0.00000
   49 F3      .YZ      -0.00000   0.00002  -0.00002  -0.00000  -0.00000
   50 F4      .S       -0.00024   1.01069   0.00006  -0.00015  -0.00015
   51 F4      .S       -0.00042  -0.03102   0.00048   0.00003   0.00003
   52 F4      .X        0.00000  -0.00000  -0.00000   0.00059  -0.00059
   53 F4      .Y        0.00000  -0.00000  -0.00000  -0.00000  -0.00000
   54 F4      .Z        0.00056   0.00192   0.00018   0.00056   0.00056
   55 F4      .S        0.00307  -0.03109  -0.00131   0.00116   0.00116
   56 F4      .X        0.00000  -0.00000  -0.00000   0.00058  -0.00058
   57 F4      .Y        0.00000  -0.00000  -0.00000  -0.00000  -0.00000
   58 F4      .Z        0.00128   0.00062  -0.00000   0.00050   0.00050
   59 F4      .XX      -0.00046  -0.00923   0.00027  -0.00033  -0.00033
   60 F4      .YY      -0.00046  -0.00923   0.00027  -0.00015  -0.00015
   61 F4      .ZZ      -0.00043  -0.01139   0.00050  -0.00017  -0.00017
   62 F4      .XY      -0.00000   0.00000  -0.00000  -0.00000   0.00000
   63 F4      .XZ       0.00000   0.00000   0.00000   0.00002  -0.00002
   64 F4      .YZ       0.00000   0.00000   0.00000   0.00000   0.00000
   65 F5      .S       -0.00024  -0.00015  -0.00015  -0.00015  -0.00015
   66 F5      .S       -0.00042   0.00003   0.00003   0.00003   0.00003
   67 F5      .X        0.00000  -0.00000  -0.00000   0.00059  -0.00059
   68 F5      .Y        0.00056   0.00056   0.00056   0.00056   0.00056
   69 F5      .Z        0.00000  -0.00059   0.00059  -0.00000  -0.00000
   70 F5      .S        0.00307   0.00116   0.00116   0.00116   0.00116
   71 F5      .X        0.00000  -0.00000  -0.00000   0.00058  -0.00058
   72 F5      .Y        0.00128   0.00050   0.00050   0.00050   0.00050
   73 F5      .Z        0.00000  -0.00058   0.00058   0.00000   0.00000
   74 F5      .XX      -0.00046  -0.00015  -0.00015  -0.00033  -0.00033
   75 F5      .YY      -0.00043  -0.00017  -0.00017  -0.00017  -0.00017
   76 F5      .ZZ      -0.00046  -0.00033  -0.00033  -0.00015  -0.00015
   77 F5      .XY       0.00000   0.00000   0.00000   0.00002  -0.00002
   78 F5      .XZ      -0.00000  -0.00000   0.00000  -0.00000   0.00000
   79 F5      .YZ       0.00000  -0.00002   0.00002   0.00000   0.00000
   80 F6      .S       -0.00024  -0.00015  -0.00015   1.01069   0.00006
   81 F6      .S       -0.00042   0.00003   0.00003  -0.03102   0.00048
   82 F6      .X       -0.00056  -0.00056  -0.00056  -0.00192  -0.00018
   83 F6      .Y        0.00000  -0.00000  -0.00000  -0.00000  -0.00000
   84 F6      .Z        0.00000  -0.00059   0.00059  -0.00000  -0.00000
   85 F6      .S        0.00307   0.00116   0.00116  -0.03109  -0.00131
   86 F6      .X       -0.00128  -0.00050  -0.00050  -0.00062   0.00000
   87 F6      .Y        0.00000  -0.00000  -0.00000  -0.00000  -0.00000
   88 F6      .Z        0.00000  -0.00058   0.00058   0.00000   0.00000
   89 F6      .XX      -0.00043  -0.00017  -0.00017  -0.01139   0.00050
   90 F6      .YY      -0.00046  -0.00015  -0.00015  -0.00923   0.00027
   91 F6      .ZZ      -0.00046  -0.00033  -0.00033  -0.00923   0.00027
   92 F6      .XY      -0.00000  -0.00000  -0.00000  -0.00000  -0.00000
   93 F6      .XZ      -0.00000   0.00002  -0.00002  -0.00000  -0.00000
   94 F6      .YZ      -0.00000   0.00000  -0.00000   0.00000  -0.00000
   95 F7      .S       -0.00024  -0.00015  -0.00015   0.00006   1.01069
   96 F7      .S       -0.00042   0.00003   0.00003   0.00048  -0.03102
   97 F7      .X        0.00056   0.00056   0.00056   0.00018   0.00192
   98 F7      .Y        0.00000  -0.00000  -0.00000  -0.00000  -0.00000
   99 F7      .Z        0.00000  -0.00059   0.00059  -0.00000  -0.00000
  100 F7      .S        0.00307   0.00116   0.00116  -0.00131  -0.03109
  101 F7      .X        0.00128   0.00050   0.00050  -0.00000   0.00062
  102 F7      .Y        0.00000  -0.00000  -0.00000  -0.00000  -0.00000
  103 F7      .Z        0.00000  -0.00058   0.00058   0.00000   0.00000
  104 F7      .XX      -0.00043  -0.00017  -0.00017   0.00050  -0.01139
  105 F7      .YY      -0.00046  -0.00015  -0.00015   0.00027  -0.00923
  106 F7      .ZZ      -0.00046  -0.00033  -0.00033   0.00027  -0.00923
  107 F7      .XY       0.00000   0.00000   0.00000   0.00000   0.00000
  108 F7      .XZ       0.00000  -0.00002   0.00002   0.00000   0.00000
  109 F7      .YZ      -0.00000   0.00000  -0.00000  -0.00000  -0.00000
                           6         7         8         9        10
                           O         O         O         O         O    
     Eigenvalues --  -668.29378-668.29378-282.60941-171.36867-171.36867
    1 S1      .S       -0.00016  -0.00016  -0.12107   0.00000   0.00000
    2 S1      .S        0.00093   0.00093   1.03763   0.00000   0.00000
    3 S1      .X       -0.00000  -0.00000   0.00000   0.99783  -0.00000
    4 S1      .Y        0.00199  -0.00199   0.00000  -0.00000  -0.00000
    5 S1      .Z       -0.00000  -0.00000   0.00000   0.00000   0.99783
    6 S1      .S       -0.00076  -0.00076  -0.01767   0.00000   0.00000
    7 S1      .X        0.00000   0.00000   0.00000   0.01230  -0.00000
    8 S1      .Y       -0.00423   0.00423   0.00000   0.00000   0.00000
    9 S1      .Z        0.00000   0.00000   0.00000  -0.00000   0.01230
   10 S1      .S       -0.00183  -0.00183   0.00474  -0.00000  -0.00000
   11 S1      .X       -0.00000  -0.00000  -0.00000   0.00117   0.00000
   12 S1      .Y       -0.00087   0.00087  -0.00000   0.00000   0.00000
   13 S1      .Z        0.00000   0.00000  -0.00000  -0.00000   0.00117
   14 S1      .XX       0.00144   0.00144  -0.00873  -0.00000  -0.00000
   15 S1      .YY      -0.00202  -0.00202  -0.00873   0.00000  -0.00000
   16 S1      .ZZ       0.00144   0.00144  -0.00873  -0.00000  -0.00000
   17 S1      .XY      -0.00000   0.00000   0.00000  -0.00000   0.00000
   18 S1      .XZ       0.00000  -0.00000   0.00000  -0.00000   0.00000
   19 S1      .YZ       0.00000  -0.00000  -0.00000   0.00000  -0.00000
   20 F2      .S       -0.00015  -0.00015   0.00155  -0.00000   0.00214
   21 F2      .S        0.00003   0.00003  -0.00214  -0.00000  -0.00224
   22 F2      .X       -0.00000  -0.00000   0.00000  -0.00199   0.00000
   23 F2      .Y        0.00059  -0.00059   0.00000  -0.00000  -0.00000
   24 F2      .Z       -0.00056  -0.00056   0.01249  -0.00000   0.01087
   25 F2      .S        0.00116   0.00116  -0.00804   0.00000  -0.01257
   26 F2      .X       -0.00000  -0.00000   0.00000  -0.00255   0.00000
   27 F2      .Y        0.00058  -0.00058   0.00000  -0.00000  -0.00000
   28 F2      .Z       -0.00050  -0.00050   0.00992  -0.00000   0.01069
   29 F2      .XX      -0.00015  -0.00015   0.00131  -0.00000   0.00165
   30 F2      .YY      -0.00033  -0.00033   0.00131  -0.00000   0.00165
   31 F2      .ZZ      -0.00017  -0.00017  -0.00132  -0.00000  -0.00025
   32 F2      .XY       0.00000   0.00000   0.00000  -0.00000   0.00000
   33 F2      .XZ      -0.00000  -0.00000  -0.00000   0.00105  -0.00000
   34 F2      .YZ      -0.00002   0.00002  -0.00000   0.00000   0.00000
   35 F3      .S        1.01069   0.00006   0.00155  -0.00000  -0.00000
   36 F3      .S       -0.03102   0.00048  -0.00214  -0.00000  -0.00000
   37 F3      .X       -0.00000  -0.00000   0.00000  -0.00199   0.00000
   38 F3      .Y       -0.00192  -0.00018   0.01249   0.00000  -0.00000
   39 F3      .Z       -0.00000  -0.00000   0.00000   0.00000  -0.00199
   40 F3      .S       -0.03109  -0.00131  -0.00804   0.00000   0.00000
   41 F3      .X       -0.00000  -0.00000   0.00000  -0.00255   0.00000
   42 F3      .Y       -0.00062   0.00000   0.00992  -0.00000  -0.00000
   43 F3      .Z        0.00000   0.00000   0.00000   0.00000  -0.00255
   44 F3      .XX      -0.00923   0.00027   0.00131  -0.00000  -0.00000
   45 F3      .YY      -0.01139   0.00050  -0.00132  -0.00000  -0.00000
   46 F3      .ZZ      -0.00923   0.00027   0.00131  -0.00000  -0.00000
   47 F3      .XY      -0.00000  -0.00000  -0.00000   0.00105  -0.00000
   48 F3      .XZ       0.00000  -0.00000   0.00000  -0.00000   0.00000
   49 F3      .YZ      -0.00000  -0.00000  -0.00000  -0.00000   0.00105
   50 F4      .S       -0.00015  -0.00015   0.00155  -0.00000  -0.00214
   51 F4      .S        0.00003   0.00003  -0.00214  -0.00000   0.00224
   52 F4      .X       -0.00000  -0.00000   0.00000  -0.00199   0.00000
   53 F4      .Y        0.00059  -0.00059   0.00000  -0.00000  -0.00000
   54 F4      .Z        0.00056   0.00056  -0.01249   0.00000   0.01087
   55 F4      .S        0.00116   0.00116  -0.00804   0.00000   0.01257
   56 F4      .X       -0.00000  -0.00000   0.00000  -0.00255   0.00000
   57 F4      .Y        0.00058  -0.00058   0.00000  -0.00000  -0.00000
   58 F4      .Z        0.00050   0.00050  -0.00992   0.00000   0.01069
   59 F4      .XX      -0.00015  -0.00015   0.00131  -0.00000  -0.00165
   60 F4      .YY      -0.00033  -0.00033   0.00131  -0.00000  -0.00165
   61 F4      .ZZ      -0.00017  -0.00017  -0.00132  -0.00000   0.00025
   62 F4      .XY       0.00000   0.00000   0.00000  -0.00000   0.00000
   63 F4      .XZ       0.00000   0.00000   0.00000  -0.00105   0.00000
   64 F4      .YZ       0.00002  -0.00002   0.00000  -0.00000   0.00000
   65 F5      .S        0.00006   1.01069   0.00155  -0.00000  -0.00000
   66 F5      .S        0.00048  -0.03102  -0.00214  -0.00000  -0.00000
   67 F5      .X       -0.00000  -0.00000   0.00000  -0.00199  -0.00000
   68 F5      .Y        0.00018   0.00192  -0.01249   0.00000   0.00000
   69 F5      .Z       -0.00000  -0.00000   0.00000   0.00000  -0.00199
   70 F5      .S       -0.00131  -0.03109  -0.00804   0.00000   0.00000
   71 F5      .X       -0.00000  -0.00000   0.00000  -0.00255  -0.00000
   72 F5      .Y       -0.00000   0.00062  -0.00992   0.00000   0.00000
   73 F5      .Z        0.00000   0.00000   0.00000   0.00000  -0.00255
   74 F5      .XX       0.00027  -0.00923   0.00131  -0.00000  -0.00000
   75 F5      .YY       0.00050  -0.01139  -0.00132  -0.00000  -0.00000
   76 F5      .ZZ       0.00027  -0.00923   0.00131  -0.00000  -0.00000
   77 F5      .XY       0.00000   0.00000   0.00000  -0.00105  -0.00000
   78 F5      .XZ       0.00000  -0.00000   0.00000  -0.00000   0.00000
   79 F5      .YZ       0.00000   0.00000   0.00000   0.00000  -0.00105
   80 F6      .S       -0.00015  -0.00015   0.00155   0.00214  -0.00000
   81 F6      .S        0.00003   0.00003  -0.00214  -0.00224  -0.00000
   82 F6      .X       -0.00056  -0.00056   0.01249   0.01087  -0.00000
   83 F6      .Y        0.00059  -0.00059   0.00000  -0.00000  -0.00000
   84 F6      .Z       -0.00000  -0.00000   0.00000   0.00000  -0.00199
   85 F6      .S        0.00116   0.00116  -0.00804  -0.01257   0.00000
   86 F6      .X       -0.00050  -0.00050   0.00992   0.01069  -0.00000
   87 F6      .Y        0.00058  -0.00058   0.00000  -0.00000  -0.00000
   88 F6      .Z        0.00000   0.00000   0.00000  -0.00000  -0.00255
   89 F6      .XX      -0.00017  -0.00017  -0.00132  -0.00025  -0.00000
   90 F6      .YY      -0.00033  -0.00033   0.00131   0.00165  -0.00000
   91 F6      .ZZ      -0.00015  -0.00015   0.00131   0.00165  -0.00000
   92 F6      .XY      -0.00002   0.00002  -0.00000   0.00000   0.00000
   93 F6      .XZ      -0.00000  -0.00000  -0.00000   0.00000   0.00105
   94 F6      .YZ      -0.00000   0.00000  -0.00000   0.00000  -0.00000
   95 F7      .S       -0.00015  -0.00015   0.00155  -0.00214  -0.00000
   96 F7      .S        0.00003   0.00003  -0.00214   0.00224  -0.00000
   97 F7      .X        0.00056   0.00056  -0.01249   0.01087   0.00000
   98 F7      .Y        0.00059  -0.00059   0.00000  -0.00000  -0.00000
   99 F7      .Z       -0.00000  -0.00000   0.00000  -0.00000  -0.00199
  100 F7      .S        0.00116   0.00116  -0.00804   0.01257   0.00000
  101 F7      .X        0.00050   0.00050  -0.00992   0.01069   0.00000
  102 F7      .Y        0.00058  -0.00058   0.00000   0.00000  -0.00000
  103 F7      .Z        0.00000   0.00000   0.00000   0.00000  -0.00255
  104 F7      .XX      -0.00017  -0.00017  -0.00132   0.00025  -0.00000
  105 F7      .YY      -0.00033  -0.00033   0.00131  -0.00165  -0.00000
  106 F7      .ZZ      -0.00015  -0.00015   0.00131  -0.00165  -0.00000
  107 F7      .XY       0.00002  -0.00002   0.00000   0.00000  -0.00000
  108 F7      .XZ       0.00000   0.00000   0.00000   0.00000  -0.00105
  109 F7      .YZ      -0.00000   0.00000  -0.00000   0.00000  -0.00000
                          11        12        13        14        15
                           O         O         O         O         O    
     Eigenvalues --  -171.36867 -32.70433 -32.70433 -32.70433 -32.70433
    1 S1      .S        0.00000  -0.00902  -0.00902  -0.00902  -0.00902
    2 S1      .S        0.00000   0.03479   0.03479   0.03479   0.03479
    3 S1      .X        0.00000   0.03449  -0.00000  -0.00000  -0.00000
    4 S1      .Y        0.99783  -0.00000  -0.00000  -0.00000   0.03449
    5 S1      .Z        0.00000  -0.00000   0.03449  -0.03449  -0.00000
    6 S1      .S        0.00000  -0.12953  -0.12953  -0.12953  -0.12953
    7 S1      .X       -0.00000  -0.11722   0.00000   0.00000   0.00000
    8 S1      .Y        0.01230   0.00000   0.00000   0.00000  -0.11722
    9 S1      .Z        0.00000   0.00000  -0.11722   0.11722   0.00000
   10 S1      .S       -0.00000   0.00671   0.00671   0.00671   0.00671
   11 S1      .X       -0.00000   0.01823   0.00000   0.00000   0.00000
   12 S1      .Y        0.00117   0.00000   0.00000   0.00000   0.01823
   13 S1      .Z        0.00000   0.00000   0.01823  -0.01823   0.00000
   14 S1      .XX      -0.00000  -0.00847   0.00950   0.00950   0.00950
   15 S1      .YY      -0.00000   0.00950   0.00950   0.00950  -0.00847
   16 S1      .ZZ      -0.00000   0.00950  -0.00847  -0.00847   0.00950
   17 S1      .XY       0.00000  -0.00000  -0.00000   0.00000   0.00000
   18 S1      .XZ      -0.00000  -0.00000   0.00000  -0.00000   0.00000
   19 S1      .YZ       0.00000   0.00000   0.00000  -0.00000  -0.00000
   20 F2      .S       -0.00000  -0.00114  -0.13771  -0.00081  -0.00114
   21 F2      .S       -0.00000   0.00537   0.50058  -0.00066   0.00537
   22 F2      .X        0.00000  -0.00254   0.00000   0.00000   0.00000
   23 F2      .Y       -0.00199   0.00000   0.00000   0.00000  -0.00254
   24 F2      .Z       -0.00000  -0.01393   0.24763  -0.01025  -0.01393
   25 F2      .S        0.00000   0.00210   0.50858   0.00796   0.00210
   26 F2      .X        0.00000  -0.00297   0.00000  -0.00000  -0.00000
   27 F2      .Y       -0.00255  -0.00000  -0.00000  -0.00000  -0.00297
   28 F2      .Z       -0.00000  -0.01066   0.15125  -0.00342  -0.01066
   29 F2      .XX      -0.00000   0.00151   0.00922  -0.00174   0.00154
   30 F2      .YY      -0.00000   0.00154   0.00922  -0.00174   0.00151
   31 F2      .ZZ      -0.00000   0.00016   0.00887  -0.00162   0.00016
   32 F2      .XY       0.00000  -0.00000   0.00000   0.00000   0.00000
   33 F2      .XZ       0.00000   0.00196  -0.00000  -0.00000  -0.00000
   34 F2      .YZ       0.00105  -0.00000  -0.00000  -0.00000   0.00196
   35 F3      .S        0.00214  -0.00114  -0.00114  -0.00114  -0.13771
   36 F3      .S       -0.00224   0.00537   0.00537   0.00537   0.50058
   37 F3      .X       -0.00000  -0.00254   0.00000   0.00000   0.00000
   38 F3      .Y        0.01087  -0.01393  -0.01393  -0.01393   0.24763
   39 F3      .Z        0.00000  -0.00000  -0.00254   0.00254  -0.00000
   40 F3      .S       -0.01257   0.00210   0.00210   0.00210   0.50858
   41 F3      .X        0.00000  -0.00297  -0.00000  -0.00000  -0.00000
   42 F3      .Y        0.01069  -0.01066  -0.01066  -0.01066   0.15125
   43 F3      .Z        0.00000  -0.00000  -0.00297   0.00297  -0.00000
   44 F3      .XX       0.00165   0.00151   0.00154   0.00154   0.00922
   45 F3      .YY      -0.00025   0.00016   0.00016   0.00016   0.00887
   46 F3      .ZZ       0.00165   0.00154   0.00151   0.00151   0.00922
   47 F3      .XY      -0.00000   0.00196  -0.00000  -0.00000  -0.00000
   48 F3      .XZ      -0.00000  -0.00000   0.00000  -0.00000  -0.00000
   49 F3      .YZ      -0.00000   0.00000   0.00196  -0.00196   0.00000
   50 F4      .S       -0.00000  -0.00114  -0.00081  -0.13771  -0.00114
   51 F4      .S       -0.00000   0.00537  -0.00066   0.50058   0.00537
   52 F4      .X        0.00000  -0.00254   0.00000   0.00000   0.00000
   53 F4      .Y       -0.00199   0.00000   0.00000   0.00000  -0.00254
   54 F4      .Z        0.00000   0.01393   0.01025  -0.24763   0.01393
   55 F4      .S        0.00000   0.00210   0.00796   0.50858   0.00210
   56 F4      .X        0.00000  -0.00297  -0.00000   0.00000  -0.00000
   57 F4      .Y       -0.00255  -0.00000  -0.00000  -0.00000  -0.00297
   58 F4      .Z        0.00000   0.01066   0.00342  -0.15125   0.01066
   59 F4      .XX      -0.00000   0.00151  -0.00174   0.00922   0.00154
   60 F4      .YY      -0.00000   0.00154  -0.00174   0.00922   0.00151
   61 F4      .ZZ      -0.00000   0.00016  -0.00162   0.00887   0.00016
   62 F4      .XY       0.00000  -0.00000   0.00000  -0.00000   0.00000
   63 F4      .XZ       0.00000  -0.00196   0.00000   0.00000   0.00000
   64 F4      .YZ      -0.00105   0.00000   0.00000   0.00000  -0.00196
   65 F5      .S       -0.00214  -0.00114  -0.00114  -0.00114  -0.00081
   66 F5      .S        0.00224   0.00537   0.00537   0.00537  -0.00066
   67 F5      .X       -0.00000  -0.00254   0.00000   0.00000   0.00000
   68 F5      .Y        0.01087   0.01393   0.01393   0.01393   0.01025
   69 F5      .Z       -0.00000  -0.00000  -0.00254   0.00254  -0.00000
   70 F5      .S        0.01257   0.00210   0.00210   0.00210   0.00796
   71 F5      .X       -0.00000  -0.00297  -0.00000  -0.00000  -0.00000
   72 F5      .Y        0.01069   0.01066   0.01066   0.01066   0.00342
   73 F5      .Z       -0.00000  -0.00000  -0.00297   0.00297  -0.00000
   74 F5      .XX      -0.00165   0.00151   0.00154   0.00154  -0.00174
   75 F5      .YY       0.00025   0.00016   0.00016   0.00016  -0.00162
   76 F5      .ZZ      -0.00165   0.00154   0.00151   0.00151  -0.00174
   77 F5      .XY      -0.00000  -0.00196   0.00000   0.00000   0.00000
   78 F5      .XZ      -0.00000  -0.00000   0.00000  -0.00000  -0.00000
   79 F5      .YZ      -0.00000  -0.00000  -0.00196   0.00196  -0.00000
   80 F6      .S       -0.00000  -0.13771  -0.00114  -0.00114  -0.00114
   81 F6      .S       -0.00000   0.50058   0.00537   0.00537   0.00537
   82 F6      .X       -0.00000   0.24763  -0.01393  -0.01393  -0.01393
   83 F6      .Y       -0.00199   0.00000   0.00000   0.00000  -0.00254
   84 F6      .Z        0.00000  -0.00000  -0.00254   0.00254  -0.00000
   85 F6      .S        0.00000   0.50858   0.00210   0.00210   0.00210
   86 F6      .X       -0.00000   0.15125  -0.01066  -0.01066  -0.01066
   87 F6      .Y       -0.00255  -0.00000  -0.00000  -0.00000  -0.00297
   88 F6      .Z       -0.00000  -0.00000  -0.00297   0.00297  -0.00000
   89 F6      .XX      -0.00000   0.00887   0.00016   0.00016   0.00016
   90 F6      .YY      -0.00000   0.00922   0.00154   0.00154   0.00151
   91 F6      .ZZ      -0.00000   0.00922   0.00151   0.00151   0.00154
   92 F6      .XY       0.00105   0.00000  -0.00000  -0.00000   0.00196
   93 F6      .XZ       0.00000   0.00000   0.00196  -0.00196   0.00000
   94 F6      .YZ      -0.00000  -0.00000  -0.00000   0.00000   0.00000
   95 F7      .S       -0.00000  -0.00081  -0.00114  -0.00114  -0.00114
   96 F7      .S       -0.00000  -0.00066   0.00537   0.00537   0.00537
   97 F7      .X        0.00000   0.01025   0.01393   0.01393   0.01393
   98 F7      .Y       -0.00199   0.00000   0.00000   0.00000  -0.00254
   99 F7      .Z       -0.00000  -0.00000  -0.00254   0.00254  -0.00000
  100 F7      .S        0.00000   0.00796   0.00210   0.00210   0.00210
  101 F7      .X        0.00000   0.00342   0.01066   0.01066   0.01066
  102 F7      .Y       -0.00255  -0.00000  -0.00000  -0.00000  -0.00297
  103 F7      .Z       -0.00000  -0.00000  -0.00297   0.00297  -0.00000
  104 F7      .XX      -0.00000  -0.00162   0.00016   0.00016   0.00016
  105 F7      .YY      -0.00000  -0.00174   0.00154   0.00154   0.00151
  106 F7      .ZZ      -0.00000  -0.00174   0.00151   0.00151   0.00154
  107 F7      .XY      -0.00105   0.00000   0.00000   0.00000  -0.00196
  108 F7      .XZ       0.00000   0.00000  -0.00196   0.00196  -0.00000
  109 F7      .YZ      -0.00000   0.00000  -0.00000   0.00000   0.00000
                          16        17        18        19        20
                           O         O         O         O         O    
     Eigenvalues --   -32.70433 -32.70433 -25.26845 -25.26845 -25.26845
    1 S1      .S       -0.00902  -0.00902  -0.02181  -0.02181   0.02181
    2 S1      .S        0.03479   0.03479   0.08220   0.08220  -0.08220
    3 S1      .X       -0.00000  -0.03449   0.10749   0.00000  -0.00000
    4 S1      .Y       -0.03449  -0.00000   0.00000   0.10749  -0.00000
    5 S1      .Z       -0.00000  -0.00000   0.00000   0.00000   0.10749
    6 S1      .S       -0.12953  -0.12953  -0.29870  -0.29870   0.29870
    7 S1      .X        0.00000   0.11722  -0.33136  -0.00000   0.00000
    8 S1      .Y        0.11722   0.00000  -0.00000  -0.33136   0.00000
    9 S1      .Z        0.00000   0.00000   0.00000   0.00000  -0.33136
   10 S1      .S        0.00671   0.00671   0.01130   0.01130  -0.01130
   11 S1      .X        0.00000  -0.01823   0.04642   0.00000  -0.00000
   12 S1      .Y       -0.01823   0.00000   0.00000   0.04642  -0.00000
   13 S1      .Z        0.00000   0.00000   0.00000   0.00000   0.04642
   14 S1      .XX       0.00950  -0.00847  -0.10011   0.05707  -0.05707
   15 S1      .YY      -0.00847   0.00950   0.05707  -0.10011  -0.05707
   16 S1      .ZZ       0.00950   0.00950   0.05707   0.05707   0.10011
   17 S1      .XY      -0.00000   0.00000   0.00000   0.00000   0.00000
   18 S1      .XZ      -0.00000   0.00000   0.00000  -0.00000   0.00000
   19 S1      .YZ       0.00000   0.00000   0.00000  -0.00000   0.00000
   20 F2      .S       -0.00114  -0.00114  -0.00547  -0.00547   0.00062
   21 F2      .S        0.00537   0.00537   0.01727   0.01727   0.00177
   22 F2      .X        0.00000   0.00254   0.00921   0.00000  -0.00000
   23 F2      .Y        0.00254   0.00000   0.00000   0.00921  -0.00000
   24 F2      .Z       -0.01393  -0.01393  -0.05010  -0.05010  -0.01676
   25 F2      .S        0.00210   0.00210   0.01421   0.01421  -0.01582
   26 F2      .X       -0.00000   0.00297   0.00750   0.00000  -0.00000
   27 F2      .Y        0.00297  -0.00000   0.00000   0.00750  -0.00000
   28 F2      .Z       -0.01066  -0.01066  -0.03742  -0.03742  -0.01392
   29 F2      .XX       0.00154   0.00151   0.00022   0.00235   0.00406
   30 F2      .YY       0.00151   0.00154   0.00235   0.00022   0.00406
   31 F2      .ZZ       0.00016   0.00016   0.00017   0.00017  -0.00330
   32 F2      .XY      -0.00000   0.00000   0.00000   0.00000  -0.00000
   33 F2      .XZ      -0.00000  -0.00196   0.00121  -0.00000   0.00000
   34 F2      .YZ      -0.00196  -0.00000  -0.00000   0.00121   0.00000
   35 F3      .S       -0.00081  -0.00114  -0.00547   0.04055   0.00547
   36 F3      .S       -0.00066   0.00537   0.01727  -0.18379  -0.01727
   37 F3      .X        0.00000   0.00254   0.00921   0.00000  -0.00000
   38 F3      .Y       -0.01025  -0.01393  -0.05010   0.48999   0.05010
   39 F3      .Z       -0.00000  -0.00000  -0.00000  -0.00000   0.00921
   40 F3      .S        0.00796   0.00210   0.01421  -0.12483  -0.01421
   41 F3      .X       -0.00000   0.00297   0.00750   0.00000  -0.00000
   42 F3      .Y       -0.00342  -0.01066  -0.03742   0.30142   0.03742
   43 F3      .Z       -0.00000  -0.00000  -0.00000  -0.00000   0.00750
   44 F3      .XX      -0.00174   0.00151   0.00022   0.00115  -0.00235
   45 F3      .YY      -0.00162   0.00016   0.00017  -0.04321  -0.00017
   46 F3      .ZZ      -0.00174   0.00154   0.00235   0.00115  -0.00022
   47 F3      .XY      -0.00000  -0.00196   0.00121  -0.00000   0.00000
   48 F3      .XZ      -0.00000   0.00000  -0.00000  -0.00000   0.00000
   49 F3      .YZ       0.00000   0.00000  -0.00000  -0.00000   0.00121
   50 F4      .S       -0.00114  -0.00114  -0.00547  -0.00547  -0.04055
   51 F4      .S        0.00537   0.00537   0.01727   0.01727   0.18379
   52 F4      .X        0.00000   0.00254   0.00921   0.00000  -0.00000
   53 F4      .Y        0.00254   0.00000   0.00000   0.00921  -0.00000
   54 F4      .Z        0.01393   0.01393   0.05010   0.05010   0.48999
   55 F4      .S        0.00210   0.00210   0.01421   0.01421   0.12483
   56 F4      .X       -0.00000   0.00297   0.00750   0.00000  -0.00000
   57 F4      .Y        0.00297  -0.00000   0.00000   0.00750  -0.00000
   58 F4      .Z        0.01066   0.01066   0.03742   0.03742   0.30142
   59 F4      .XX       0.00154   0.00151   0.00022   0.00235  -0.00115
   60 F4      .YY       0.00151   0.00154   0.00235   0.00022  -0.00115
   61 F4      .ZZ       0.00016   0.00016   0.00017   0.00017   0.04321
   62 F4      .XY      -0.00000   0.00000   0.00000   0.00000   0.00000
   63 F4      .XZ       0.00000   0.00196  -0.00121   0.00000  -0.00000
   64 F4      .YZ       0.00196   0.00000   0.00000  -0.00121  -0.00000
   65 F5      .S       -0.13771  -0.00114  -0.00547  -0.00062   0.00547
   66 F5      .S        0.50058   0.00537   0.01727  -0.00177  -0.01727
   67 F5      .X        0.00000   0.00254   0.00921   0.00000  -0.00000
   68 F5      .Y       -0.24763   0.01393   0.05010  -0.01676  -0.05010
   69 F5      .Z       -0.00000  -0.00000  -0.00000  -0.00000   0.00921
   70 F5      .S        0.50858   0.00210   0.01421   0.01582  -0.01421
   71 F5      .X       -0.00000   0.00297   0.00750   0.00000  -0.00000
   72 F5      .Y       -0.15125   0.01066   0.03742  -0.01392  -0.03742
   73 F5      .Z       -0.00000  -0.00000  -0.00000  -0.00000   0.00750
   74 F5      .XX       0.00922   0.00151   0.00022  -0.00406  -0.00235
   75 F5      .YY       0.00887   0.00016   0.00017   0.00330  -0.00017
   76 F5      .ZZ       0.00922   0.00154   0.00235  -0.00406  -0.00022
   77 F5      .XY       0.00000   0.00196  -0.00121   0.00000  -0.00000
   78 F5      .XZ      -0.00000   0.00000  -0.00000  -0.00000   0.00000
   79 F5      .YZ      -0.00000  -0.00000   0.00000   0.00000  -0.00121
   80 F6      .S       -0.00114  -0.00081   0.04055  -0.00547   0.00547
   81 F6      .S        0.00537  -0.00066  -0.18379   0.01727  -0.01727
   82 F6      .X       -0.01393  -0.01025   0.48999  -0.05010   0.05010
   83 F6      .Y        0.00254   0.00000   0.00000   0.00921  -0.00000
   84 F6      .Z       -0.00000  -0.00000  -0.00000  -0.00000   0.00921
   85 F6      .S        0.00210   0.00796  -0.12483   0.01421  -0.01421
   86 F6      .X       -0.01066  -0.00342   0.30142  -0.03742   0.03742
   87 F6      .Y        0.00297  -0.00000   0.00000   0.00750  -0.00000
   88 F6      .Z       -0.00000  -0.00000  -0.00000  -0.00000   0.00750
   89 F6      .XX       0.00016  -0.00162  -0.04321   0.00017  -0.00017
   90 F6      .YY       0.00151  -0.00174   0.00115   0.00022  -0.00235
   91 F6      .ZZ       0.00154  -0.00174   0.00115   0.00235  -0.00022
   92 F6      .XY      -0.00196  -0.00000  -0.00000   0.00121   0.00000
   93 F6      .XZ       0.00000  -0.00000  -0.00000  -0.00000   0.00121
   94 F6      .YZ      -0.00000   0.00000  -0.00000   0.00000  -0.00000
   95 F7      .S       -0.00114  -0.13771  -0.00062  -0.00547   0.00547
   96 F7      .S        0.00537   0.50058  -0.00177   0.01727  -0.01727
   97 F7      .X        0.01393  -0.24763  -0.01676   0.05010  -0.05010
   98 F7      .Y        0.00254   0.00000   0.00000   0.00921  -0.00000
   99 F7      .Z       -0.00000  -0.00000  -0.00000  -0.00000   0.00921
  100 F7      .S        0.00210   0.50858   0.01582   0.01421  -0.01421
  101 F7      .X        0.01066  -0.15125  -0.01392   0.03742  -0.03742
  102 F7      .Y        0.00297  -0.00000   0.00000   0.00750  -0.00000
  103 F7      .Z       -0.00000  -0.00000  -0.00000  -0.00000   0.00750
  104 F7      .XX       0.00016   0.00887   0.00330   0.00017  -0.00017
  105 F7      .YY       0.00151   0.00922  -0.00406   0.00022  -0.00235
  106 F7      .ZZ       0.00154   0.00922  -0.00406   0.00235  -0.00022
  107 F7      .XY       0.00196  -0.00000   0.00000  -0.00121  -0.00000
  108 F7      .XZ      -0.00000  -0.00000   0.00000   0.00000  -0.00121
  109 F7      .YZ      -0.00000  -0.00000  -0.00000   0.00000  -0.00000
                          21        22        23        24        25
                           O         O         O         O         O    
     Eigenvalues --   -25.26845 -25.26845 -25.26845 -13.18771 -13.18771
    1 S1      .S       -0.02181   0.02181   0.02181   0.00000   0.00000
    2 S1      .S        0.08220  -0.08220  -0.08220  -0.00000  -0.00000
    3 S1      .X        0.00000  -0.00000   0.10749  -0.01708  -0.00000
    4 S1      .Y        0.00000   0.10749  -0.00000   0.00000  -0.01708
    5 S1      .Z        0.10749  -0.00000  -0.00000   0.00000  -0.00000
    6 S1      .S       -0.29870   0.29870   0.29870   0.00000   0.00000
    7 S1      .X       -0.00000   0.00000  -0.33136   0.05280  -0.00000
    8 S1      .Y       -0.00000  -0.33136   0.00000   0.00000   0.05280
    9 S1      .Z       -0.33136  -0.00000  -0.00000   0.00000   0.00000
   10 S1      .S        0.01130  -0.01130  -0.01130  -0.00000  -0.00000
   11 S1      .X        0.00000  -0.00000   0.04642   0.09487   0.00000
   12 S1      .Y        0.00000   0.04642  -0.00000   0.00000   0.09487
   13 S1      .Z        0.04642  -0.00000  -0.00000  -0.00000   0.00000
   14 S1      .XX       0.05707  -0.05707   0.10011  -0.00000  -0.00000
   15 S1      .YY       0.05707   0.10011  -0.05707   0.00000  -0.00000
   16 S1      .ZZ      -0.10011  -0.05707  -0.05707   0.00000  -0.00000
   17 S1      .XY       0.00000   0.00000   0.00000  -0.05642  -0.05642
   18 S1      .XZ       0.00000  -0.00000   0.00000   0.00000  -0.00000
   19 S1      .YZ       0.00000  -0.00000  -0.00000  -0.00000   0.00000
   20 F2      .S        0.04055   0.00547   0.00547  -0.00000  -0.00000
   21 F2      .S       -0.18379  -0.01727  -0.01727  -0.00000  -0.00000
   22 F2      .X        0.00000  -0.00000   0.00921  -0.00937  -0.00000
   23 F2      .Y        0.00000   0.00921  -0.00000  -0.00000  -0.00937
   24 F2      .Z        0.48999   0.05010   0.05010   0.00000   0.00000
   25 F2      .S       -0.12483  -0.01421  -0.01421   0.00000   0.00000
   26 F2      .X        0.00000  -0.00000   0.00750  -0.01746  -0.00000
   27 F2      .Y        0.00000   0.00750  -0.00000  -0.00000  -0.01746
   28 F2      .Z        0.30142   0.03742   0.03742   0.00000   0.00000
   29 F2      .XX       0.00115  -0.00235  -0.00022  -0.00000  -0.00000
   30 F2      .YY       0.00115  -0.00022  -0.00235  -0.00000  -0.00000
   31 F2      .ZZ      -0.04321  -0.00017  -0.00017  -0.00000  -0.00000
   32 F2      .XY      -0.00000   0.00000   0.00000  -0.00291  -0.00291
   33 F2      .XZ      -0.00000   0.00000   0.00121   0.00136   0.00000
   34 F2      .YZ      -0.00000   0.00121   0.00000   0.00000   0.00136
   35 F3      .S       -0.00547   0.00062   0.00547  -0.00000   0.00858
   36 F3      .S        0.01727   0.00177  -0.01727  -0.00000  -0.00855
   37 F3      .X        0.00000  -0.00000   0.00921   0.00095   0.02662
   38 F3      .Y       -0.05010  -0.01676   0.05010   0.00000   0.03913
   39 F3      .Z        0.00921   0.00000   0.00000  -0.00000   0.00000
   40 F3      .S        0.01421  -0.01582  -0.01421   0.00000  -0.07591
   41 F3      .X        0.00000  -0.00000   0.00750  -0.01232   0.00411
   42 F3      .Y       -0.03742  -0.01392   0.03742   0.00000   0.04251
   43 F3      .Z        0.00750   0.00000   0.00000   0.00000  -0.00000
   44 F3      .XX       0.00235   0.00406  -0.00022  -0.00000   0.01037
   45 F3      .YY       0.00017  -0.00330  -0.00017  -0.00000  -0.00125
   46 F3      .ZZ       0.00022   0.00406  -0.00235  -0.00000   0.00367
   47 F3      .XY      -0.00000   0.00000   0.00121   0.00207   0.00497
   48 F3      .XZ       0.00000   0.00000  -0.00000   0.00000  -0.00000
   49 F3      .YZ       0.00121   0.00000   0.00000   0.00000   0.00000
   50 F4      .S       -0.00062   0.00547   0.00547  -0.00000  -0.00000
   51 F4      .S       -0.00177  -0.01727  -0.01727  -0.00000  -0.00000
   52 F4      .X        0.00000  -0.00000   0.00921  -0.00937  -0.00000
   53 F4      .Y        0.00000   0.00921  -0.00000   0.00000  -0.00937
   54 F4      .Z       -0.01676  -0.05010  -0.05010  -0.00000  -0.00000
   55 F4      .S        0.01582  -0.01421  -0.01421   0.00000   0.00000
   56 F4      .X        0.00000  -0.00000   0.00750  -0.01746  -0.00000
   57 F4      .Y        0.00000   0.00750  -0.00000  -0.00000  -0.01746
   58 F4      .Z       -0.01392  -0.03742  -0.03742  -0.00000  -0.00000
   59 F4      .XX      -0.00406  -0.00235  -0.00022  -0.00000  -0.00000
   60 F4      .YY      -0.00406  -0.00022  -0.00235  -0.00000  -0.00000
   61 F4      .ZZ       0.00330  -0.00017  -0.00017  -0.00000  -0.00000
   62 F4      .XY       0.00000   0.00000   0.00000  -0.00291  -0.00291
   63 F4      .XZ       0.00000  -0.00000  -0.00121  -0.00136  -0.00000
   64 F4      .YZ       0.00000  -0.00121  -0.00000  -0.00000  -0.00136
   65 F5      .S       -0.00547  -0.04055   0.00547  -0.00000  -0.00858
   66 F5      .S        0.01727   0.18379  -0.01727  -0.00000   0.00855
   67 F5      .X        0.00000  -0.00000   0.00921   0.66273  -0.02662
   68 F5      .Y        0.05010   0.48999  -0.05010  -0.00000   0.03913
   69 F5      .Z        0.00921   0.00000   0.00000  -0.00000  -0.00000
   70 F5      .S        0.01421   0.12483  -0.01421   0.00000   0.07591
   71 F5      .X        0.00000  -0.00000   0.00750   0.45477  -0.00411
   72 F5      .Y        0.03742   0.30142  -0.03742  -0.00000   0.04251
   73 F5      .Z        0.00750   0.00000   0.00000  -0.00000   0.00000
   74 F5      .XX       0.00235  -0.00115  -0.00022  -0.00000  -0.01037
   75 F5      .YY       0.00017   0.04321  -0.00017  -0.00000   0.00125
   76 F5      .ZZ       0.00022  -0.00115  -0.00235  -0.00000  -0.00367
   77 F5      .XY       0.00000  -0.00000  -0.00121   0.03041   0.00497
   78 F5      .XZ       0.00000   0.00000  -0.00000   0.00000   0.00000
   79 F5      .YZ      -0.00121  -0.00000  -0.00000   0.00000   0.00000
   80 F6      .S       -0.00547   0.00547   0.00062   0.00858  -0.00000
   81 F6      .S        0.01727  -0.01727   0.00177  -0.00855  -0.00000
   82 F6      .X       -0.05010   0.05010  -0.01676   0.03913   0.00000
   83 F6      .Y        0.00000   0.00921  -0.00000   0.02662   0.00095
   84 F6      .Z        0.00921   0.00000   0.00000  -0.00000  -0.00000
   85 F6      .S        0.01421  -0.01421  -0.01582  -0.07591   0.00000
   86 F6      .X       -0.03742   0.03742  -0.01392   0.04251   0.00000
   87 F6      .Y        0.00000   0.00750  -0.00000   0.00411  -0.01232
   88 F6      .Z        0.00750   0.00000   0.00000   0.00000  -0.00000
   89 F6      .XX       0.00017  -0.00017  -0.00330  -0.00125  -0.00000
   90 F6      .YY       0.00235  -0.00022   0.00406   0.01037  -0.00000
   91 F6      .ZZ       0.00022  -0.00235   0.00406   0.00367  -0.00000
   92 F6      .XY      -0.00000   0.00121   0.00000   0.00497   0.00207
   93 F6      .XZ       0.00121   0.00000   0.00000  -0.00000   0.00000
   94 F6      .YZ      -0.00000   0.00000  -0.00000  -0.00000  -0.00000
   95 F7      .S       -0.00547   0.00547  -0.04055  -0.00858  -0.00000
   96 F7      .S        0.01727  -0.01727   0.18379   0.00855  -0.00000
   97 F7      .X        0.05010  -0.05010   0.48999   0.03913  -0.00000
   98 F7      .Y        0.00000   0.00921  -0.00000  -0.02662   0.66273
   99 F7      .Z        0.00921   0.00000   0.00000   0.00000  -0.00000
  100 F7      .S        0.01421  -0.01421   0.12483   0.07591   0.00000
  101 F7      .X        0.03742  -0.03742   0.30142   0.04251  -0.00000
  102 F7      .Y        0.00000   0.00750  -0.00000  -0.00411   0.45477
  103 F7      .Z        0.00750   0.00000   0.00000  -0.00000  -0.00000
  104 F7      .XX       0.00017  -0.00017   0.04321   0.00125  -0.00000
  105 F7      .YY       0.00235  -0.00022  -0.00115  -0.01037  -0.00000
  106 F7      .ZZ       0.00022  -0.00235  -0.00115  -0.00367  -0.00000
  107 F7      .XY       0.00000  -0.00121  -0.00000   0.00497   0.03041
  108 F7      .XZ      -0.00121  -0.00000  -0.00000  -0.00000   0.00000
  109 F7      .YZ       0.00000   0.00000   0.00000   0.00000  -0.00000
                          26        27        28        29        30
                           O         O         O         O         O    
     Eigenvalues --   -13.18771 -13.18771 -13.18771 -13.18771 -13.18771
    1 S1      .S        0.00000   0.00000   0.00000   0.00000   0.00000
    2 S1      .S       -0.00000  -0.00000  -0.00000  -0.00000  -0.00000
    3 S1      .X       -0.01708   0.00000  -0.01708  -0.01708   0.00000
    4 S1      .Y        0.00000  -0.01708   0.00000  -0.00000  -0.01708
    5 S1      .Z       -0.00000   0.00000  -0.00000  -0.00000   0.00000
    6 S1      .S        0.00000   0.00000   0.00000   0.00000   0.00000
    7 S1      .X        0.05280   0.00000   0.05280   0.05280   0.00000
    8 S1      .Y        0.00000   0.05280   0.00000   0.00000   0.05280
    9 S1      .Z        0.00000   0.00000   0.00000  -0.00000  -0.00000
   10 S1      .S       -0.00000  -0.00000  -0.00000  -0.00000  -0.00000
   11 S1      .X        0.09487  -0.00000   0.09487   0.09487   0.00000
   12 S1      .Y       -0.00000   0.09487   0.00000   0.00000   0.09487
   13 S1      .Z       -0.00000   0.00000  -0.00000   0.00000  -0.00000
   14 S1      .XX      -0.00000  -0.00000  -0.00000  -0.00000  -0.00000
   15 S1      .YY       0.00000  -0.00000   0.00000   0.00000  -0.00000
   16 S1      .ZZ       0.00000  -0.00000   0.00000   0.00000  -0.00000
   17 S1      .XY       0.05642   0.05642   0.00000   0.00000  -0.00000
   18 S1      .XZ       0.00000   0.00000   0.05642  -0.05642   0.00000
   19 S1      .YZ       0.00000   0.00000  -0.00000   0.00000  -0.05642
   20 F2      .S       -0.00000  -0.00000  -0.00000  -0.00000  -0.00000
   21 F2      .S       -0.00000  -0.00000  -0.00000  -0.00000  -0.00000
   22 F2      .X       -0.00937   0.00000   0.66273   0.00095  -0.00000
   23 F2      .Y        0.00000  -0.00937   0.00000  -0.00000   0.00095
   24 F2      .Z        0.00000   0.00000   0.00000   0.00000   0.00000
   25 F2      .S        0.00000   0.00000   0.00000   0.00000   0.00000
   26 F2      .X       -0.01746   0.00000   0.45477  -0.01232  -0.00000
   27 F2      .Y        0.00000  -0.01746  -0.00000  -0.00000  -0.01232
   28 F2      .Z        0.00000   0.00000   0.00000   0.00000   0.00000
   29 F2      .XX      -0.00000  -0.00000  -0.00000  -0.00000  -0.00000
   30 F2      .YY      -0.00000  -0.00000  -0.00000  -0.00000  -0.00000
   31 F2      .ZZ      -0.00000  -0.00000  -0.00000  -0.00000  -0.00000
   32 F2      .XY       0.00291   0.00291  -0.00000  -0.00000  -0.00000
   33 F2      .XZ       0.00136  -0.00000  -0.03041   0.00207   0.00000
   34 F2      .YZ       0.00000   0.00136  -0.00000  -0.00000   0.00207
   35 F3      .S       -0.00000   0.00858  -0.00000  -0.00000   0.00858
   36 F3      .S       -0.00000  -0.00855  -0.00000  -0.00000  -0.00855
   37 F3      .X        0.66273  -0.02662  -0.00937  -0.00937   0.00000
   38 F3      .Y        0.00000   0.03913   0.00000   0.00000   0.03913
   39 F3      .Z       -0.00000   0.00000   0.00000  -0.00000   0.02662
   40 F3      .S        0.00000  -0.07591   0.00000   0.00000  -0.07591
   41 F3      .X        0.45477  -0.00411  -0.01746  -0.01746  -0.00000
   42 F3      .Y        0.00000   0.04251   0.00000   0.00000   0.04251
   43 F3      .Z       -0.00000  -0.00000   0.00000  -0.00000   0.00411
   44 F3      .XX      -0.00000   0.01037  -0.00000  -0.00000   0.00367
   45 F3      .YY      -0.00000  -0.00125  -0.00000  -0.00000  -0.00125
   46 F3      .ZZ      -0.00000   0.00367  -0.00000  -0.00000   0.01037
   47 F3      .XY      -0.03041  -0.00497   0.00136   0.00136   0.00000
   48 F3      .XZ       0.00000   0.00000   0.00291  -0.00291   0.00000
   49 F3      .YZ      -0.00000   0.00000   0.00000  -0.00000   0.00497
   50 F4      .S       -0.00000  -0.00000  -0.00000  -0.00000  -0.00000
   51 F4      .S       -0.00000  -0.00000  -0.00000  -0.00000  -0.00000
   52 F4      .X       -0.00937   0.00000   0.00095   0.66273  -0.00000
   53 F4      .Y        0.00000  -0.00937   0.00000   0.00000   0.66273
   54 F4      .Z       -0.00000  -0.00000  -0.00000  -0.00000  -0.00000
   55 F4      .S        0.00000   0.00000   0.00000   0.00000   0.00000
   56 F4      .X       -0.01746   0.00000  -0.01232   0.45477  -0.00000
   57 F4      .Y        0.00000  -0.01746  -0.00000  -0.00000   0.45477
   58 F4      .Z       -0.00000  -0.00000  -0.00000  -0.00000  -0.00000
   59 F4      .XX      -0.00000  -0.00000  -0.00000  -0.00000  -0.00000
   60 F4      .YY      -0.00000  -0.00000  -0.00000  -0.00000  -0.00000
   61 F4      .ZZ      -0.00000  -0.00000  -0.00000  -0.00000  -0.00000
   62 F4      .XY       0.00291   0.00291  -0.00000  -0.00000  -0.00000
   63 F4      .XZ      -0.00136   0.00000  -0.00207   0.03041  -0.00000
   64 F4      .YZ      -0.00000  -0.00136  -0.00000  -0.00000   0.03041
   65 F5      .S       -0.00000  -0.00858  -0.00000  -0.00000  -0.00858
   66 F5      .S       -0.00000   0.00855  -0.00000  -0.00000   0.00855
   67 F5      .X        0.00095   0.02662  -0.00937  -0.00937  -0.00000
   68 F5      .Y       -0.00000   0.03913  -0.00000  -0.00000   0.03913
   69 F5      .Z        0.00000  -0.00000   0.00000  -0.00000  -0.02662
   70 F5      .S        0.00000   0.07591   0.00000   0.00000   0.07591
   71 F5      .X       -0.01232   0.00411  -0.01746  -0.01746   0.00000
   72 F5      .Y       -0.00000   0.04251  -0.00000  -0.00000   0.04251
   73 F5      .Z        0.00000   0.00000   0.00000  -0.00000  -0.00411
   74 F5      .XX      -0.00000  -0.01037  -0.00000  -0.00000  -0.00367
   75 F5      .YY      -0.00000   0.00125  -0.00000  -0.00000   0.00125
   76 F5      .ZZ      -0.00000  -0.00367  -0.00000  -0.00000  -0.01037
   77 F5      .XY      -0.00207  -0.00497  -0.00136  -0.00136   0.00000
   78 F5      .XZ       0.00000   0.00000   0.00291  -0.00291  -0.00000
   79 F5      .YZ       0.00000   0.00000  -0.00000   0.00000   0.00497
   80 F6      .S        0.00858  -0.00000   0.00858   0.00858  -0.00000
   81 F6      .S       -0.00855  -0.00000  -0.00855  -0.00855  -0.00000
   82 F6      .X        0.03913   0.00000   0.03913   0.03913   0.00000
   83 F6      .Y       -0.02662   0.66273  -0.00000  -0.00000  -0.00937
   84 F6      .Z       -0.00000   0.00000  -0.02662   0.02662   0.00000
   85 F6      .S       -0.07591   0.00000  -0.07591  -0.07591   0.00000
   86 F6      .X        0.04251   0.00000   0.04251   0.04251   0.00000
   87 F6      .Y       -0.00411   0.45477   0.00000   0.00000  -0.01746
   88 F6      .Z        0.00000   0.00000  -0.00411   0.00411   0.00000
   89 F6      .XX      -0.00125  -0.00000  -0.00125  -0.00125  -0.00000
   90 F6      .YY       0.01037  -0.00000   0.00367   0.00367  -0.00000
   91 F6      .ZZ       0.00367  -0.00000   0.01037   0.01037  -0.00000
   92 F6      .XY      -0.00497  -0.03041  -0.00000  -0.00000   0.00136
   93 F6      .XZ      -0.00000  -0.00000  -0.00497   0.00497  -0.00000
   94 F6      .YZ      -0.00000  -0.00000  -0.00000   0.00000  -0.00291
   95 F7      .S       -0.00858  -0.00000  -0.00858  -0.00858  -0.00000
   96 F7      .S        0.00855  -0.00000   0.00855   0.00855  -0.00000
   97 F7      .X        0.03913  -0.00000   0.03913   0.03913  -0.00000
   98 F7      .Y        0.02662   0.00095   0.00000   0.00000  -0.00937
   99 F7      .Z        0.00000   0.00000   0.02662  -0.02662   0.00000
  100 F7      .S        0.07591   0.00000   0.07591   0.07591   0.00000
  101 F7      .X        0.04251  -0.00000   0.04251   0.04251  -0.00000
  102 F7      .Y        0.00411  -0.01232  -0.00000  -0.00000  -0.01746
  103 F7      .Z       -0.00000   0.00000   0.00411  -0.00411   0.00000
  104 F7      .XX       0.00125  -0.00000   0.00125   0.00125  -0.00000
  105 F7      .YY      -0.01037  -0.00000  -0.00367  -0.00367  -0.00000
  106 F7      .ZZ      -0.00367  -0.00000  -0.01037  -0.01037  -0.00000
  107 F7      .XY      -0.00497  -0.00207  -0.00000  -0.00000  -0.00136
  108 F7      .XZ      -0.00000   0.00000  -0.00497   0.00497   0.00000
  109 F7      .YZ      -0.00000  -0.00000  -0.00000  -0.00000  -0.00291
                          31        32        33        34        35
                           O         O         O         O         O    
     Eigenvalues --   -13.18771 -13.18771 -13.18771 -13.18771 -13.18771
    1 S1      .S        0.00000   0.00000   0.00000   0.00000   0.00000
    2 S1      .S       -0.00000   0.00000   0.00000   0.00000   0.00000
    3 S1      .X        0.00000  -0.00000   0.00000  -0.00000  -0.00000
    4 S1      .Y       -0.01708  -0.00000  -0.00000  -0.00000   0.00000
    5 S1      .Z       -0.00000  -0.01708  -0.01708  -0.01708  -0.01708
    6 S1      .S        0.00000   0.00000   0.00000   0.00000   0.00000
    7 S1      .X        0.00000   0.00000  -0.00000  -0.00000   0.00000
    8 S1      .Y        0.05280  -0.00000   0.00000   0.00000  -0.00000
    9 S1      .Z        0.00000   0.05280   0.05280   0.05280   0.05280
   10 S1      .S       -0.00000  -0.00000  -0.00000  -0.00000  -0.00000
   11 S1      .X        0.00000  -0.00000   0.00000  -0.00000   0.00000
   12 S1      .Y        0.09487   0.00000   0.00000   0.00000  -0.00000
   13 S1      .Z        0.00000   0.09487   0.09487   0.09487   0.09487
   14 S1      .XX      -0.00000  -0.00000  -0.00000  -0.00000  -0.00000
   15 S1      .YY      -0.00000  -0.00000  -0.00000  -0.00000  -0.00000
   16 S1      .ZZ      -0.00000  -0.00000  -0.00000  -0.00000  -0.00000
   17 S1      .XY      -0.00000  -0.00000  -0.00000  -0.00000   0.00000
   18 S1      .XZ      -0.00000  -0.05642   0.05642  -0.00000  -0.00000
   19 S1      .YZ       0.05642   0.00000   0.00000   0.05642  -0.05642
   20 F2      .S       -0.00000   0.00858   0.00858   0.00858   0.00858
   21 F2      .S       -0.00000  -0.00855  -0.00855  -0.00855  -0.00855
   22 F2      .X       -0.00000   0.02662  -0.02662   0.00000   0.00000
   23 F2      .Y        0.66273   0.00000   0.00000  -0.02662   0.02662
   24 F2      .Z        0.00000   0.03913   0.03913   0.03913   0.03913
   25 F2      .S        0.00000  -0.07591  -0.07591  -0.07591  -0.07591
   26 F2      .X       -0.00000   0.00411  -0.00411  -0.00000  -0.00000
   27 F2      .Y        0.45477  -0.00000  -0.00000  -0.00411   0.00411
   28 F2      .Z        0.00000   0.04251   0.04251   0.04251   0.04251
   29 F2      .XX      -0.00000   0.01037   0.01037   0.00367   0.00367
   30 F2      .YY      -0.00000   0.00367   0.00367   0.01037   0.01037
   31 F2      .ZZ      -0.00000  -0.00125  -0.00125  -0.00125  -0.00125
   32 F2      .XY      -0.00000   0.00000  -0.00000  -0.00000  -0.00000
   33 F2      .XZ      -0.00000   0.00497  -0.00497   0.00000   0.00000
   34 F2      .YZ      -0.03041   0.00000   0.00000  -0.00497   0.00497
   35 F3      .S        0.00858  -0.00000  -0.00000  -0.00000  -0.00000
   36 F3      .S       -0.00855  -0.00000  -0.00000  -0.00000  -0.00000
   37 F3      .X        0.00000  -0.00000   0.00000   0.00000  -0.00000
   38 F3      .Y        0.03913  -0.00000  -0.00000  -0.00000  -0.00000
   39 F3      .Z       -0.02662  -0.00937  -0.00937   0.66273   0.00095
   40 F3      .S       -0.07591   0.00000   0.00000   0.00000   0.00000
   41 F3      .X       -0.00000  -0.00000   0.00000   0.00000  -0.00000
   42 F3      .Y        0.04251  -0.00000  -0.00000  -0.00000  -0.00000
   43 F3      .Z       -0.00411  -0.01746  -0.01746   0.45477  -0.01232
   44 F3      .XX       0.00367  -0.00000  -0.00000  -0.00000  -0.00000
   45 F3      .YY      -0.00125  -0.00000  -0.00000  -0.00000  -0.00000
   46 F3      .ZZ       0.01037  -0.00000  -0.00000  -0.00000  -0.00000
   47 F3      .XY       0.00000   0.00000  -0.00000  -0.00000   0.00000
   48 F3      .XZ      -0.00000  -0.00291   0.00291  -0.00000  -0.00000
   49 F3      .YZ      -0.00497   0.00136   0.00136  -0.03041   0.00207
   50 F4      .S       -0.00000  -0.00858  -0.00858  -0.00858  -0.00858
   51 F4      .S       -0.00000   0.00855   0.00855   0.00855   0.00855
   52 F4      .X        0.00000  -0.02662   0.02662  -0.00000  -0.00000
   53 F4      .Y        0.00095  -0.00000  -0.00000   0.02662  -0.02662
   54 F4      .Z       -0.00000   0.03913   0.03913   0.03913   0.03913
   55 F4      .S        0.00000   0.07591   0.07591   0.07591   0.07591
   56 F4      .X        0.00000  -0.00411   0.00411   0.00000   0.00000
   57 F4      .Y       -0.01232   0.00000   0.00000   0.00411  -0.00411
   58 F4      .Z       -0.00000   0.04251   0.04251   0.04251   0.04251
   59 F4      .XX      -0.00000  -0.01037  -0.01037  -0.00367  -0.00367
   60 F4      .YY      -0.00000  -0.00367  -0.00367  -0.01037  -0.01037
   61 F4      .ZZ      -0.00000   0.00125   0.00125   0.00125   0.00125
   62 F4      .XY      -0.00000  -0.00000   0.00000   0.00000  -0.00000
   63 F4      .XZ       0.00000   0.00497  -0.00497   0.00000   0.00000
   64 F4      .YZ      -0.00207   0.00000   0.00000  -0.00497   0.00497
   65 F5      .S       -0.00858  -0.00000  -0.00000  -0.00000  -0.00000
   66 F5      .S        0.00855  -0.00000  -0.00000  -0.00000  -0.00000
   67 F5      .X       -0.00000  -0.00000   0.00000  -0.00000   0.00000
   68 F5      .Y        0.03913   0.00000   0.00000   0.00000   0.00000
   69 F5      .Z        0.02662  -0.00937  -0.00937   0.00095   0.66273
   70 F5      .S        0.07591   0.00000   0.00000   0.00000   0.00000
   71 F5      .X        0.00000  -0.00000   0.00000   0.00000   0.00000
   72 F5      .Y        0.04251   0.00000   0.00000   0.00000   0.00000
   73 F5      .Z        0.00411  -0.01746  -0.01746  -0.01232   0.45477
   74 F5      .XX      -0.00367  -0.00000  -0.00000  -0.00000  -0.00000
   75 F5      .YY       0.00125  -0.00000  -0.00000  -0.00000  -0.00000
   76 F5      .ZZ      -0.01037  -0.00000  -0.00000  -0.00000  -0.00000
   77 F5      .XY       0.00000  -0.00000   0.00000   0.00000   0.00000
   78 F5      .XZ       0.00000  -0.00291   0.00291  -0.00000  -0.00000
   79 F5      .YZ      -0.00497  -0.00136  -0.00136  -0.00207   0.03041
   80 F6      .S       -0.00000  -0.00000  -0.00000  -0.00000  -0.00000
   81 F6      .S       -0.00000  -0.00000  -0.00000  -0.00000  -0.00000
   82 F6      .X        0.00000  -0.00000  -0.00000  -0.00000  -0.00000
   83 F6      .Y       -0.00937  -0.00000  -0.00000  -0.00000   0.00000
   84 F6      .Z       -0.00000   0.00095   0.66273  -0.00937  -0.00937
   85 F6      .S        0.00000   0.00000   0.00000   0.00000   0.00000
   86 F6      .X        0.00000  -0.00000  -0.00000  -0.00000  -0.00000
   87 F6      .Y       -0.01746  -0.00000  -0.00000  -0.00000   0.00000
   88 F6      .Z       -0.00000  -0.01232   0.45477  -0.01746  -0.01746
   89 F6      .XX      -0.00000  -0.00000  -0.00000  -0.00000  -0.00000
   90 F6      .YY      -0.00000  -0.00000  -0.00000  -0.00000  -0.00000
   91 F6      .ZZ      -0.00000  -0.00000  -0.00000  -0.00000  -0.00000
   92 F6      .XY       0.00136   0.00000   0.00000   0.00000  -0.00000
   93 F6      .XZ       0.00000   0.00207  -0.03041   0.00136   0.00136
   94 F6      .YZ       0.00291  -0.00000  -0.00000   0.00291  -0.00291
   95 F7      .S       -0.00000  -0.00000  -0.00000  -0.00000  -0.00000
   96 F7      .S       -0.00000  -0.00000  -0.00000  -0.00000  -0.00000
   97 F7      .X       -0.00000   0.00000   0.00000   0.00000   0.00000
   98 F7      .Y       -0.00937   0.00000   0.00000  -0.00000   0.00000
   99 F7      .Z       -0.00000   0.66273   0.00095  -0.00937  -0.00937
  100 F7      .S        0.00000   0.00000   0.00000   0.00000   0.00000
  101 F7      .X       -0.00000   0.00000   0.00000   0.00000   0.00000
  102 F7      .Y       -0.01746   0.00000   0.00000  -0.00000   0.00000
  103 F7      .Z       -0.00000   0.45477  -0.01232  -0.01746  -0.01746
  104 F7      .XX      -0.00000  -0.00000  -0.00000  -0.00000  -0.00000
  105 F7      .YY      -0.00000  -0.00000  -0.00000  -0.00000  -0.00000
  106 F7      .ZZ      -0.00000  -0.00000  -0.00000  -0.00000  -0.00000
  107 F7      .XY      -0.00136  -0.00000   0.00000  -0.00000   0.00000
  108 F7      .XZ      -0.00000   0.03041  -0.00207  -0.00136  -0.00136
  109 F7      .YZ       0.00291  -0.00000  -0.00000   0.00291  -0.00291
                          36        37        38        39        40
                           V         V         V         V         V    
     Eigenvalues --     9.89869   9.89869   9.89869   9.89869   9.89869
    1 S1      .S        0.03133   0.03133  -0.03133  -0.03133  -0.03133
    2 S1      .S       -0.10261  -0.10261   0.10261   0.10261   0.10261
    3 S1      .X        0.22921   0.00000   0.22921  -0.00000  -0.00000
    4 S1      .Y        0.00000   0.22921  -0.00000   0.22921  -0.00000
    5 S1      .Z        0.00000   0.00000  -0.00000  -0.00000   0.22921
    6 S1      .S        0.49719   0.49719  -0.49719  -0.49719  -0.49719
    7 S1      .X       -0.78670  -0.00000  -0.78670   0.00000   0.00000
    8 S1      .Y       -0.00000  -0.78670   0.00000  -0.78670   0.00000
    9 S1      .Z       -0.00000  -0.00000   0.00000   0.00000  -0.78670
   10 S1      .S       -0.19002  -0.19002   0.19002   0.19002   0.19002
   11 S1      .X       -0.03709  -0.00000  -0.03709   0.00000   0.00000
   12 S1      .Y       -0.00000  -0.03709   0.00000  -0.03709   0.00000
   13 S1      .Z        0.00000   0.00000  -0.00000  -0.00000  -0.03709
   14 S1      .XX       0.67613  -0.33388  -0.67613   0.33388   0.33388
   15 S1      .YY      -0.33388   0.67613   0.33388  -0.67613   0.33388
   16 S1      .ZZ      -0.33388  -0.33388   0.33388   0.33388  -0.67613
   17 S1      .XY       0.00000  -0.00000   0.00000  -0.00000  -0.00000
   18 S1      .XZ       0.00000  -0.00000   0.00000  -0.00000  -0.00000
   19 S1      .YZ       0.00000   0.00000   0.00000   0.00000   0.00000
   20 F2      .S       -0.01294  -0.01294   0.01294   0.01294  -0.05918
   21 F2      .S       -0.07124  -0.07124   0.07124   0.07124   0.31252
   22 F2      .X        0.07909   0.00000   0.07909  -0.00000  -0.00000
   23 F2      .Y        0.00000   0.07909  -0.00000   0.07909  -0.00000
   24 F2      .Z        0.03755   0.03755  -0.03755  -0.03755  -0.49749
   25 F2      .S        0.22687   0.22687  -0.22687  -0.22687  -0.00137
   26 F2      .X        0.05353   0.00000   0.05353  -0.00000  -0.00000
   27 F2      .Y        0.00000   0.05353  -0.00000   0.05353  -0.00000
   28 F2      .Z        0.01157   0.01157  -0.01157  -0.01157  -0.36864
   29 F2      .XX      -0.04838  -0.04806   0.04838   0.04806   0.05145
   30 F2      .YY      -0.04806  -0.04838   0.04806   0.04838   0.05145
   31 F2      .ZZ      -0.05396  -0.05396   0.05396   0.05396   0.07455
   32 F2      .XY       0.00000  -0.00000   0.00000  -0.00000  -0.00000
   33 F2      .XZ      -0.00231  -0.00000  -0.00231   0.00000   0.00000
   34 F2      .YZ      -0.00000  -0.00231   0.00000  -0.00231   0.00000
   35 F3      .S       -0.01294   0.00671   0.01294  -0.05918   0.01294
   36 F3      .S       -0.07124   0.13609   0.07124   0.31252   0.07124
   37 F3      .X        0.07909   0.00000   0.07909  -0.00000  -0.00000
   38 F3      .Y        0.03755  -0.01215  -0.03755  -0.49749  -0.03755
   39 F3      .Z        0.00000  -0.00000  -0.00000  -0.00000   0.07909
   40 F3      .S        0.22687  -0.19637  -0.22687  -0.00137  -0.22687
   41 F3      .X        0.05353   0.00000   0.05353  -0.00000  -0.00000
   42 F3      .Y        0.01157  -0.00305  -0.01157  -0.36864  -0.01157
   43 F3      .Z        0.00000  -0.00000  -0.00000  -0.00000   0.05353
   44 F3      .XX      -0.04838   0.05873   0.04838   0.05145   0.04806
   45 F3      .YY      -0.05396   0.06313   0.05396   0.07455   0.05396
   46 F3      .ZZ      -0.04806   0.05873   0.04806   0.05145   0.04838
   47 F3      .XY      -0.00231  -0.00000  -0.00231   0.00000   0.00000
   48 F3      .XZ       0.00000   0.00000   0.00000  -0.00000  -0.00000
   49 F3      .YZ       0.00000  -0.00000  -0.00000  -0.00000  -0.00231
   50 F4      .S       -0.01294  -0.01294   0.01294   0.01294  -0.00671
   51 F4      .S       -0.07124  -0.07124   0.07124   0.07124  -0.13609
   52 F4      .X        0.07909   0.00000   0.07909  -0.00000  -0.00000
   53 F4      .Y        0.00000   0.07909  -0.00000   0.07909  -0.00000
   54 F4      .Z       -0.03755  -0.03755   0.03755   0.03755  -0.01215
   55 F4      .S        0.22687   0.22687  -0.22687  -0.22687   0.19637
   56 F4      .X        0.05353   0.00000   0.05353  -0.00000  -0.00000
   57 F4      .Y        0.00000   0.05353  -0.00000   0.05353  -0.00000
   58 F4      .Z       -0.01157  -0.01157   0.01157   0.01157  -0.00305
   59 F4      .XX      -0.04838  -0.04806   0.04838   0.04806  -0.05873
   60 F4      .YY      -0.04806  -0.04838   0.04806   0.04838  -0.05873
   61 F4      .ZZ      -0.05396  -0.05396   0.05396   0.05396  -0.06313
   62 F4      .XY       0.00000  -0.00000   0.00000  -0.00000  -0.00000
   63 F4      .XZ       0.00231   0.00000   0.00231  -0.00000  -0.00000
   64 F4      .YZ       0.00000   0.00231  -0.00000   0.00231  -0.00000
   65 F5      .S       -0.01294   0.05918   0.01294  -0.00671   0.01294
   66 F5      .S       -0.07124  -0.31252   0.07124  -0.13609   0.07124
   67 F5      .X        0.07909   0.00000   0.07909  -0.00000  -0.00000
   68 F5      .Y       -0.03755  -0.49749   0.03755  -0.01215   0.03755
   69 F5      .Z        0.00000   0.00000  -0.00000   0.00000   0.07909
   70 F5      .S        0.22687   0.00137  -0.22687   0.19637  -0.22687
   71 F5      .X        0.05353   0.00000   0.05353  -0.00000  -0.00000
   72 F5      .Y       -0.01157  -0.36864   0.01157  -0.00305   0.01157
   73 F5      .Z        0.00000   0.00000  -0.00000  -0.00000   0.05353
   74 F5      .XX      -0.04838  -0.05145   0.04838  -0.05873   0.04806
   75 F5      .YY      -0.05396  -0.07455   0.05396  -0.06313   0.05396
   76 F5      .ZZ      -0.04806  -0.05145   0.04806  -0.05873   0.04838
   77 F5      .XY       0.00231   0.00000   0.00231  -0.00000  -0.00000
   78 F5      .XZ       0.00000   0.00000   0.00000  -0.00000  -0.00000
   79 F5      .YZ      -0.00000  -0.00000   0.00000  -0.00000   0.00231
   80 F6      .S        0.00671  -0.01294  -0.05918   0.01294   0.01294
   81 F6      .S        0.13609  -0.07124   0.31252   0.07124   0.07124
   82 F6      .X       -0.01215   0.03755  -0.49749  -0.03755  -0.03755
   83 F6      .Y        0.00000   0.07909  -0.00000   0.07909  -0.00000
   84 F6      .Z       -0.00000   0.00000  -0.00000  -0.00000   0.07909
   85 F6      .S       -0.19637   0.22687  -0.00137  -0.22687  -0.22687
   86 F6      .X       -0.00305   0.01157  -0.36864  -0.01157  -0.01157
   87 F6      .Y        0.00000   0.05353  -0.00000   0.05353  -0.00000
   88 F6      .Z       -0.00000   0.00000  -0.00000  -0.00000   0.05353
   89 F6      .XX       0.06313  -0.05396   0.07455   0.05396   0.05396
   90 F6      .YY       0.05873  -0.04838   0.05145   0.04838   0.04806
   91 F6      .ZZ       0.05873  -0.04806   0.05145   0.04806   0.04838
   92 F6      .XY      -0.00000  -0.00231   0.00000  -0.00231   0.00000
   93 F6      .XZ      -0.00000   0.00000  -0.00000  -0.00000  -0.00231
   94 F6      .YZ      -0.00000   0.00000   0.00000   0.00000   0.00000
   95 F7      .S        0.05918  -0.01294  -0.00671   0.01294   0.01294
   96 F7      .S       -0.31252  -0.07124  -0.13609   0.07124   0.07124
   97 F7      .X       -0.49749  -0.03755  -0.01215   0.03755   0.03755
   98 F7      .Y        0.00000   0.07909  -0.00000   0.07909  -0.00000
   99 F7      .Z        0.00000   0.00000   0.00000  -0.00000   0.07909
  100 F7      .S        0.00137   0.22687   0.19637  -0.22687  -0.22687
  101 F7      .X       -0.36864  -0.01157  -0.00305   0.01157   0.01157
  102 F7      .Y        0.00000   0.05353  -0.00000   0.05353  -0.00000
  103 F7      .Z        0.00000   0.00000   0.00000  -0.00000   0.05353
  104 F7      .XX      -0.07455  -0.05396  -0.06313   0.05396   0.05396
  105 F7      .YY      -0.05145  -0.04838  -0.05873   0.04838   0.04806
  106 F7      .ZZ      -0.05145  -0.04806  -0.05873   0.04806   0.04838
  107 F7      .XY       0.00000   0.00231  -0.00000   0.00231  -0.00000
  108 F7      .XZ      -0.00000  -0.00000  -0.00000   0.00000   0.00231
  109 F7      .YZ      -0.00000   0.00000   0.00000   0.00000   0.00000
                          41        42        43        44        45
                           V         V         V         V         V    
     Eigenvalues --     9.89869  10.99750  10.99750  10.99750  16.55555
    1 S1      .S        0.03133   0.00000   0.00000   0.00000  -0.00000
    2 S1      .S       -0.10261  -0.00000  -0.00000  -0.00000  -0.00000
    3 S1      .X        0.00000   0.00000   0.00000   0.17019   0.00000
    4 S1      .Y        0.00000   0.00000   0.17019  -0.00000  -0.00000
    5 S1      .Z        0.22921   0.17019   0.00000  -0.00000  -0.00000
    6 S1      .S        0.49719   0.00000   0.00000   0.00000  -0.00000
    7 S1      .X       -0.00000  -0.00000   0.00000  -0.87615  -0.00000
    8 S1      .Y       -0.00000  -0.00000  -0.87615   0.00000   0.00000
    9 S1      .Z       -0.78670  -0.87615  -0.00000   0.00000   0.00000
   10 S1      .S       -0.19002   0.00000  -0.00000  -0.00000   0.00000
   11 S1      .X       -0.00000   0.00000   0.00000   2.05959  -0.00000
   12 S1      .Y       -0.00000  -0.00000   2.05959   0.00000   0.00000
   13 S1      .Z       -0.03709   2.05959  -0.00000   0.00000  -0.00000
   14 S1      .XX      -0.33388  -0.00000  -0.00000   0.00000   0.00000
   15 S1      .YY      -0.33388  -0.00000   0.00000  -0.00000  -0.00000
   16 S1      .ZZ       0.67613   0.00000  -0.00000  -0.00000   0.00000
   17 S1      .XY       0.00000   0.00000   0.00000  -0.00000   1.02323
   18 S1      .XZ      -0.00000  -0.00000   0.00000  -0.00000  -0.00000
   19 S1      .YZ       0.00000  -0.00000  -0.00000   0.00000   0.00000
   20 F2      .S        0.00671   0.08628  -0.00000  -0.00000  -0.00000
   21 F2      .S        0.13609  -0.06941  -0.00000  -0.00000  -0.00000
   22 F2      .X        0.00000  -0.00000   0.00000  -0.16706   0.00000
   23 F2      .Y        0.00000   0.00000  -0.16706   0.00000   0.00000
   24 F2      .Z       -0.01215  -0.04030  -0.00000  -0.00000   0.00000
   25 F2      .S       -0.19637  -0.98966   0.00000   0.00000   0.00000
   26 F2      .X        0.00000   0.00000  -0.00000  -0.14299   0.00000
   27 F2      .Y        0.00000   0.00000  -0.14299  -0.00000   0.00000
   28 F2      .Z       -0.00305  -0.03208  -0.00000  -0.00000  -0.00000
   29 F2      .XX       0.05873   0.15238  -0.00000  -0.00000  -0.00000
   30 F2      .YY       0.05873   0.15238  -0.00000  -0.00000  -0.00000
   31 F2      .ZZ       0.06313   0.15259  -0.00000  -0.00000  -0.00000
   32 F2      .XY      -0.00000   0.00000   0.00000  -0.00000  -0.00007
   33 F2      .XZ      -0.00000  -0.00000   0.00000   0.00081  -0.00000
   34 F2      .YZ      -0.00000   0.00000   0.00081   0.00000  -0.00000
   35 F3      .S       -0.01294   0.00000   0.08628  -0.00000   0.00000
   36 F3      .S       -0.07124  -0.00000  -0.06941  -0.00000   0.00000
   37 F3      .X        0.00000   0.00000  -0.00000  -0.16706  -0.10978
   38 F3      .Y        0.03755   0.00000  -0.04030  -0.00000   0.00000
   39 F3      .Z        0.07909  -0.16706   0.00000  -0.00000   0.00000
   40 F3      .S        0.22687  -0.00000  -0.98966   0.00000  -0.00000
   41 F3      .X        0.00000  -0.00000  -0.00000  -0.14299  -0.09052
   42 F3      .Y        0.01157   0.00000  -0.03208  -0.00000   0.00000
   43 F3      .Z        0.05353  -0.14299   0.00000  -0.00000   0.00000
   44 F3      .XX      -0.04806  -0.00000   0.15238  -0.00000   0.00000
   45 F3      .YY      -0.05396  -0.00000   0.15259  -0.00000   0.00000
   46 F3      .ZZ      -0.04838  -0.00000   0.15238  -0.00000   0.00000
   47 F3      .XY      -0.00000   0.00000  -0.00000   0.00081   0.00201
   48 F3      .XZ      -0.00000  -0.00000  -0.00000  -0.00000  -0.00000
   49 F3      .YZ      -0.00231   0.00081   0.00000   0.00000   0.00000
   50 F4      .S        0.05918  -0.08628  -0.00000  -0.00000   0.00000
   51 F4      .S       -0.31252   0.06941  -0.00000  -0.00000   0.00000
   52 F4      .X        0.00000   0.00000   0.00000  -0.16706   0.00000
   53 F4      .Y        0.00000  -0.00000  -0.16706   0.00000   0.00000
   54 F4      .Z       -0.49749  -0.04030   0.00000   0.00000   0.00000
   55 F4      .S        0.00137   0.98966   0.00000   0.00000  -0.00000
   56 F4      .X        0.00000   0.00000  -0.00000  -0.14299   0.00000
   57 F4      .Y        0.00000  -0.00000  -0.14299  -0.00000   0.00000
   58 F4      .Z       -0.36864  -0.03208   0.00000   0.00000  -0.00000
   59 F4      .XX      -0.05145  -0.15238  -0.00000  -0.00000   0.00000
   60 F4      .YY      -0.05145  -0.15238  -0.00000  -0.00000   0.00000
   61 F4      .ZZ      -0.07455  -0.15259  -0.00000  -0.00000   0.00000
   62 F4      .XY      -0.00000  -0.00000   0.00000  -0.00000  -0.00007
   63 F4      .XZ       0.00000  -0.00000  -0.00000  -0.00081   0.00000
   64 F4      .YZ       0.00000   0.00000  -0.00081  -0.00000   0.00000
   65 F5      .S       -0.01294   0.00000  -0.08628  -0.00000  -0.00000
   66 F5      .S       -0.07124  -0.00000   0.06941  -0.00000  -0.00000
   67 F5      .X        0.00000   0.00000   0.00000  -0.16706   0.10978
   68 F5      .Y       -0.03755  -0.00000  -0.04030   0.00000   0.00000
   69 F5      .Z        0.07909  -0.16706  -0.00000  -0.00000   0.00000
   70 F5      .S        0.22687  -0.00000   0.98966   0.00000   0.00000
   71 F5      .X        0.00000   0.00000  -0.00000  -0.14299   0.09052
   72 F5      .Y       -0.01157  -0.00000  -0.03208   0.00000   0.00000
   73 F5      .Z        0.05353  -0.14299  -0.00000  -0.00000   0.00000
   74 F5      .XX      -0.04806   0.00000  -0.15238  -0.00000  -0.00000
   75 F5      .YY      -0.05396   0.00000  -0.15259  -0.00000   0.00000
   76 F5      .ZZ      -0.04838   0.00000  -0.15238  -0.00000  -0.00000
   77 F5      .XY       0.00000  -0.00000  -0.00000  -0.00081   0.00201
   78 F5      .XZ      -0.00000   0.00000   0.00000  -0.00000  -0.00000
   79 F5      .YZ       0.00231  -0.00081   0.00000   0.00000   0.00000
   80 F6      .S       -0.01294   0.00000  -0.00000   0.08628  -0.00000
   81 F6      .S       -0.07124  -0.00000  -0.00000  -0.06941   0.00000
   82 F6      .X        0.03755   0.00000  -0.00000  -0.04030  -0.00000
   83 F6      .Y        0.00000  -0.00000  -0.16706   0.00000  -0.10978
   84 F6      .Z        0.07909  -0.16706  -0.00000   0.00000   0.00000
   85 F6      .S        0.22687  -0.00000   0.00000  -0.98966   0.00000
   86 F6      .X        0.01157   0.00000  -0.00000  -0.03208  -0.00000
   87 F6      .Y        0.00000   0.00000  -0.14299   0.00000  -0.09052
   88 F6      .Z        0.05353  -0.14299   0.00000   0.00000   0.00000
   89 F6      .XX      -0.05396   0.00000  -0.00000   0.15259   0.00000
   90 F6      .YY      -0.04806   0.00000  -0.00000   0.15238  -0.00000
   91 F6      .ZZ      -0.04838   0.00000  -0.00000   0.15238  -0.00000
   92 F6      .XY      -0.00000  -0.00000   0.00081   0.00000   0.00201
   93 F6      .XZ      -0.00231   0.00081   0.00000   0.00000   0.00000
   94 F6      .YZ       0.00000  -0.00000  -0.00000   0.00000   0.00000
   95 F7      .S       -0.01294   0.00000  -0.00000  -0.08628   0.00000
   96 F7      .S       -0.07124  -0.00000  -0.00000   0.06941  -0.00000
   97 F7      .X       -0.03755  -0.00000   0.00000  -0.04030  -0.00000
   98 F7      .Y        0.00000  -0.00000  -0.16706  -0.00000   0.10978
   99 F7      .Z        0.07909  -0.16706  -0.00000  -0.00000  -0.00000
  100 F7      .S        0.22687  -0.00000   0.00000   0.98966  -0.00000
  101 F7      .X       -0.01157  -0.00000   0.00000  -0.03208  -0.00000
  102 F7      .Y        0.00000   0.00000  -0.14299  -0.00000   0.09052
  103 F7      .Z        0.05353  -0.14299   0.00000  -0.00000   0.00000
  104 F7      .XX      -0.05396   0.00000  -0.00000  -0.15259  -0.00000
  105 F7      .YY      -0.04806  -0.00000  -0.00000  -0.15238   0.00000
  106 F7      .ZZ      -0.04838   0.00000  -0.00000  -0.15238   0.00000
  107 F7      .XY       0.00000   0.00000  -0.00081   0.00000   0.00201
  108 F7      .XZ       0.00231  -0.00081   0.00000   0.00000   0.00000
  109 F7      .YZ       0.00000  -0.00000  -0.00000   0.00000   0.00000
                          46        47        48        49        50
                           V         V         V         V         V    
     Eigenvalues --    16.55555  16.55555  24.43047  42.61588  42.61588
    1 S1      .S       -0.00000  -0.00000  -0.09350  -0.00000  -0.00000
    2 S1      .S        0.00000   0.00000   0.07231   0.00000   0.00000
    3 S1      .X        0.00000   0.00000   0.00000   0.03203   0.03203
    4 S1      .Y       -0.00000   0.00000   0.00000  -0.00000  -0.00000
    5 S1      .Z       -0.00000   0.00000  -0.00000   0.00000   0.00000
    6 S1      .S       -0.00000  -0.00000  -3.49634  -0.00000  -0.00000
    7 S1      .X       -0.00000  -0.00000  -0.00000  -0.08152  -0.08152
    8 S1      .Y        0.00000  -0.00000  -0.00000   0.00000   0.00000
    9 S1      .Z        0.00000  -0.00000   0.00000  -0.00000  -0.00000
   10 S1      .S        0.00000   0.00000   4.12913  -0.00000  -0.00000
   11 S1      .X       -0.00000  -0.00000   0.00000  -1.50894  -1.50894
   12 S1      .Y        0.00000   0.00000  -0.00000   0.00000   0.00000
   13 S1      .Z        0.00000  -0.00000   0.00000  -0.00000  -0.00000
   14 S1      .XX      -0.00000   0.00000   0.68665  -0.00000  -0.00000
   15 S1      .YY       0.00000   0.00000   0.68665   0.00000   0.00000
   16 S1      .ZZ       0.00000   0.00000   0.68665   0.00000   0.00000
   17 S1      .XY       0.00000  -0.00000  -0.00000  -0.22536  -0.00000
   18 S1      .XZ       1.02323   0.00000  -0.00000  -0.00000   0.22536
   19 S1      .YZ       0.00000   1.02323  -0.00000  -0.00000  -0.00000
   20 F2      .S        0.00000  -0.00000   0.11505  -0.00000  -0.00000
   21 F2      .S        0.00000  -0.00000   0.17165  -0.00000  -0.00000
   22 F2      .X       -0.10978   0.00000   0.00000   0.00755   0.00749
   23 F2      .Y        0.00000  -0.10978   0.00000   0.00000  -0.00000
   24 F2      .Z        0.00000  -0.00000   0.11815  -0.00000  -0.00000
[...]
   41 F3      .X        0.00000  -0.00000   0.01239  -0.01239  -0.00000
   42 F3      .Y       -0.17445   0.69261   0.05201   0.05201   0.05201
   43 F3      .Z        0.14884  -0.00000  -0.00000  -0.00000  -0.01239
   44 F3      .XX      -0.34857  -1.30810   0.05614   0.05614   0.04852
   45 F3      .YY      -0.35076  -2.19842   0.05750   0.05750   0.05750
   46 F3      .ZZ      -0.34881  -1.30810   0.04852   0.04852   0.05614
   47 F3      .XY      -0.00000   0.00000  -0.02090   0.02090   0.00000
   48 F3      .XZ      -0.00000  -0.00000   0.00000  -0.00000   0.00000
   49 F3      .YZ      -0.02161   0.00000  -0.00000  -0.00000   0.02090
   50 F4      .S        0.03443   0.00878   0.00878   0.00878   0.06784
   51 F4      .S        0.11286   0.13009   0.13009   0.13009   0.24774
   52 F4      .X       -0.00000  -0.00000  -0.05546   0.05546  -0.00000
   53 F4      .Y        0.00000   0.05546  -0.00000  -0.00000  -0.00000
   54 F4      .Z       -0.00584   0.03135   0.03135   0.03135  -0.03962
   55 F4      .S       -0.52050  -0.28629  -0.28629  -0.28629  -1.09651
   56 F4      .X        0.00000  -0.00000   0.01239  -0.01239  -0.00000
   57 F4      .Y       -0.00000  -0.01239  -0.00000  -0.00000  -0.00000
   58 F4      .Z        0.05563  -0.05201  -0.05201  -0.05201  -0.12791
   59 F4      .XX       0.11946   0.04852   0.05614   0.05614   0.23136
   60 F4      .YY       0.11946   0.05614   0.04852   0.04852   0.23136
   61 F4      .ZZ       0.15195   0.05750   0.05750   0.05750   0.14866
   62 F4      .XY       0.00000   0.00000   0.00000  -0.00000  -0.00000
   63 F4      .XZ       0.00000  -0.00000   0.02090  -0.02090  -0.00000
   64 F4      .YZ       0.00000  -0.02090   0.00000   0.00000   0.00000
   65 F5      .S       -0.09663   0.06784   0.00878   0.00878   0.00878
   66 F5      .S       -0.43858   0.24774   0.13009   0.13009   0.13009
   67 F5      .X       -0.00000  -0.00000  -0.05546   0.05546  -0.00000
   68 F5      .Y        0.04249  -0.03962   0.03135   0.03135   0.03135
   69 F5      .Z        0.05150  -0.00000  -0.00000  -0.00000   0.05546
   70 F5      .S        1.74361  -1.09651  -0.28629  -0.28629  -0.28629
   71 F5      .X        0.00000  -0.00000   0.01239  -0.01239  -0.00000
   72 F5      .Y        0.17445  -0.12791  -0.05201  -0.05201  -0.05201
   73 F5      .Z        0.14884  -0.00000  -0.00000  -0.00000  -0.01239
   74 F5      .XX      -0.34857   0.23136   0.05614   0.05614   0.04852
   75 F5      .YY      -0.35076   0.14866   0.05750   0.05750   0.05750
   76 F5      .ZZ      -0.34881   0.23136   0.04852   0.04852   0.05614
   77 F5      .XY       0.00000  -0.00000   0.02090  -0.02090  -0.00000
   78 F5      .XZ      -0.00000   0.00000   0.00000  -0.00000  -0.00000
   79 F5      .YZ       0.02161   0.00000   0.00000   0.00000  -0.02090
   80 F6      .S       -0.09663   0.00878   0.06784  -0.35189   0.00878
   81 F6      .S       -0.43858   0.13009   0.24774  -1.32730   0.13009
   82 F6      .X       -0.04249  -0.03135   0.03962  -0.46349  -0.03135
   83 F6      .Y       -0.00000   0.05546  -0.00000   0.00000  -0.00000
   84 F6      .Z        0.05150  -0.00000  -0.00000   0.00000   0.05546
   85 F6      .S        1.74361  -0.28629  -1.09651   4.72822  -0.28629
   86 F6      .X       -0.17445   0.05201   0.12791   0.69261   0.05201
   87 F6      .Y       -0.00000  -0.01239  -0.00000  -0.00000  -0.00000
   88 F6      .Z        0.14884  -0.00000  -0.00000   0.00000  -0.01239
   89 F6      .XX      -0.35076   0.05750   0.14866  -2.19842   0.05750
   90 F6      .YY      -0.34857   0.05614   0.23136  -1.30810   0.04852
   91 F6      .ZZ      -0.34881   0.04852   0.23136  -1.30810   0.05614
   92 F6      .XY      -0.00000   0.02090  -0.00000   0.00000  -0.00000
   93 F6      .XZ      -0.02161  -0.00000  -0.00000   0.00000   0.02090
   94 F6      .YZ       0.00000  -0.00000   0.00000  -0.00000  -0.00000
   95 F7      .S       -0.09663   0.00878  -0.35189   0.06784   0.00878
   96 F7      .S       -0.43858   0.13009  -1.32730   0.24774   0.13009
   97 F7      .X        0.04249   0.03135   0.46349  -0.03962   0.03135
   98 F7      .Y       -0.00000   0.05546   0.00000  -0.00000  -0.00000
   99 F7      .Z        0.05150  -0.00000   0.00000  -0.00000   0.05546
  100 F7      .S        1.74361  -0.28629   4.72822  -1.09651  -0.28629
  101 F7      .X        0.17445  -0.05201  -0.69261  -0.12791  -0.05201
  102 F7      .Y       -0.00000  -0.01239  -0.00000  -0.00000  -0.00000
  103 F7      .Z        0.14884  -0.00000   0.00000  -0.00000  -0.01239
  104 F7      .XX      -0.35076   0.05750  -2.19842   0.14866   0.05750
  105 F7      .YY      -0.34857   0.05614  -1.30810   0.23136   0.04852
  106 F7      .ZZ      -0.34881   0.04852  -1.30810   0.23136   0.05614
  107 F7      .XY       0.00000  -0.02090  -0.00000   0.00000   0.00000
  108 F7      .XZ       0.02161   0.00000  -0.00000   0.00000  -0.02090
  109 F7      .YZ       0.00000  -0.00000   0.00000   0.00000  -0.00000
                         101       102       103       104       105
                           V         V         V         V         V    
     Eigenvalues --    60.98390  60.98390 105.43202 105.43202 105.43202
    1 S1      .S        0.01155   0.01155  -0.00961  -0.00961  -0.00961
    2 S1      .S       -0.04714  -0.04714  -0.04975  -0.04975  -0.04975
    3 S1      .X       -0.00000  -0.00000   0.12186  -0.12186   0.00000
    4 S1      .Y       -0.00000   0.09363  -0.00000  -0.00000   0.12186
    5 S1      .Z        0.09363  -0.00000  -0.00000  -0.00000  -0.00000
    6 S1      .S        0.10151   0.10151  -0.86945  -0.86945  -0.86945
    7 S1      .X        0.00000   0.00000  -0.89338   0.89338  -0.00000
    8 S1      .Y        0.00000  -0.45521   0.00000   0.00000  -0.89338
    9 S1      .Z       -0.45521   0.00000   0.00000   0.00000   0.00000
   10 S1      .S        0.18388   0.18388   2.64864   2.64864   2.64864
   11 S1      .X       -0.00000  -0.00000  -1.25004   1.25004   0.00000
   12 S1      .Y       -0.00000   0.83177   0.00000   0.00000  -1.25004
   13 S1      .Z        0.83177  -0.00000  -0.00000  -0.00000  -0.00000
   14 S1      .XX      -0.10977  -0.10977   0.87369   0.87369   0.10677
   15 S1      .YY      -0.10977   0.48140   0.10677   0.10677   0.87369
   16 S1      .ZZ       0.48140  -0.10977   0.10677   0.10677   0.10677
   17 S1      .XY      -0.00000  -0.00000  -0.00000   0.00000   0.00000
   18 S1      .XZ      -0.00000   0.00000  -0.00000   0.00000  -0.00000
   19 S1      .YZ       0.00000   0.00000  -0.00000   0.00000  -0.00000
   20 F2      .S        0.06784   0.00878   0.05369   0.05369   0.05369
   21 F2      .S        0.24774   0.13009   0.23504   0.23504   0.23504
   22 F2      .X       -0.00000  -0.00000   0.03055  -0.03055  -0.00000
   23 F2      .Y       -0.00000  -0.05546  -0.00000  -0.00000   0.03055
   24 F2      .Z        0.03962  -0.03135   0.03034   0.03034   0.03034
   25 F2      .S       -1.09651  -0.28629  -1.06472  -1.06472  -1.06472
   26 F2      .X       -0.00000  -0.00000   0.05705  -0.05705  -0.00000
   27 F2      .Y       -0.00000   0.01239  -0.00000  -0.00000   0.05705
   28 F2      .Z        0.12791   0.05201   0.08844   0.08844   0.08844
   29 F2      .XX       0.23136   0.04852   0.21300   0.21300   0.15487
   30 F2      .YY       0.23136   0.05614   0.15487   0.15487   0.21300
   31 F2      .ZZ       0.14866   0.05750   0.19759   0.19759   0.19759
   32 F2      .XY       0.00000  -0.00000  -0.00000   0.00000   0.00000
   33 F2      .XZ       0.00000   0.00000   0.00567  -0.00567   0.00000
   34 F2      .YZ      -0.00000  -0.02090   0.00000   0.00000   0.00567
   35 F3      .S        0.00878   0.06784   0.05369   0.05369  -0.02366
   36 F3      .S        0.13009   0.24774   0.23504   0.23504  -0.08921
   37 F3      .X       -0.00000  -0.00000   0.03055  -0.03055  -0.00000
   38 F3      .Y       -0.03135   0.03962   0.03034   0.03034  -0.00260
   39 F3      .Z       -0.05546  -0.00000   0.00000   0.00000   0.00000
   40 F3      .S       -0.28629  -1.09651  -1.06472  -1.06472   0.39598
   41 F3      .X       -0.00000  -0.00000   0.05705  -0.05705  -0.00000
   42 F3      .Y        0.05201   0.12791   0.08844   0.08844   0.06592
   43 F3      .Z        0.01239  -0.00000   0.00000   0.00000   0.00000
   44 F3      .XX       0.04852   0.23136   0.21300   0.21300  -0.08565
   45 F3      .YY       0.05750   0.14866   0.19759   0.19759  -0.15572
   46 F3      .ZZ       0.05614   0.23136   0.15487   0.15487  -0.08565
   47 F3      .XY       0.00000   0.00000   0.00567  -0.00567   0.00000
   48 F3      .XZ       0.00000  -0.00000   0.00000   0.00000  -0.00000
   49 F3      .YZ      -0.02090  -0.00000  -0.00000  -0.00000  -0.00000
   50 F4      .S       -0.35189   0.00878   0.05369   0.05369   0.05369
   51 F4      .S       -1.32730   0.13009   0.23504   0.23504   0.23504
   52 F4      .X       -0.00000  -0.00000   0.03055  -0.03055  -0.00000
   53 F4      .Y       -0.00000  -0.05546  -0.00000  -0.00000   0.03055
   54 F4      .Z        0.46349   0.03135  -0.03034  -0.03034  -0.03034
   55 F4      .S        4.72822  -0.28629  -1.06472  -1.06472  -1.06472
   56 F4      .X       -0.00000  -0.00000   0.05705  -0.05705  -0.00000
   57 F4      .Y       -0.00000   0.01239  -0.00000  -0.00000   0.05705
   58 F4      .Z       -0.69261  -0.05201  -0.08844  -0.08844  -0.08844
   59 F4      .XX      -1.30810   0.04852   0.21300   0.21300   0.15487
   60 F4      .YY      -1.30810   0.05614   0.15487   0.15487   0.21300
   61 F4      .ZZ      -2.19842   0.05750   0.19759   0.19759   0.19759
   62 F4      .XY       0.00000  -0.00000  -0.00000   0.00000   0.00000
   63 F4      .XZ      -0.00000  -0.00000  -0.00567   0.00567  -0.00000
   64 F4      .YZ      -0.00000   0.02090  -0.00000  -0.00000  -0.00567
   65 F5      .S        0.00878  -0.35189   0.05369   0.05369   0.63310
   66 F5      .S        0.13009  -1.32730   0.23504   0.23504   2.35307
   67 F5      .X       -0.00000  -0.00000   0.03055  -0.03055  -0.00000
   68 F5      .Y        0.03135   0.46349  -0.03034  -0.03034   0.69806
   69 F5      .Z       -0.05546   0.00000   0.00000   0.00000   0.00000
   70 F5      .S       -0.28629   4.72822  -1.06472  -1.06472  -8.93405
   71 F5      .X       -0.00000  -0.00000   0.05705  -0.05705  -0.00000
   72 F5      .Y       -0.05201  -0.69261  -0.08844  -0.08844  -1.90220
   73 F5      .Z        0.01239  -0.00000   0.00000   0.00000   0.00000
   74 F5      .XX       0.04852  -1.30810   0.21300   0.21300   2.74319
   75 F5      .YY       0.05750  -2.19842   0.19759   0.19759   1.91191
   76 F5      .ZZ       0.05614  -1.30810   0.15487   0.15487   2.74319
   77 F5      .XY      -0.00000  -0.00000  -0.00567   0.00567  -0.00000
   78 F5      .XZ       0.00000  -0.00000  -0.00000   0.00000  -0.00000
   79 F5      .YZ       0.02090  -0.00000   0.00000   0.00000   0.00000
   80 F6      .S        0.00878   0.00878  -0.02366   0.63310   0.05369
   81 F6      .S        0.13009   0.13009  -0.08921   2.35307   0.23504
   82 F6      .X       -0.03135  -0.03135  -0.00260  -0.69806   0.03034
   83 F6      .Y       -0.00000  -0.05546   0.00000  -0.00000   0.03055
   84 F6      .Z       -0.05546  -0.00000   0.00000  -0.00000   0.00000
   85 F6      .S       -0.28629  -0.28629   0.39598  -8.93405  -1.06472
   86 F6      .X        0.05201   0.05201   0.06592   1.90220   0.08844
   87 F6      .Y       -0.00000   0.01239  -0.00000  -0.00000   0.05705
   88 F6      .Z        0.01239  -0.00000   0.00000   0.00000   0.00000
   89 F6      .XX       0.05750   0.05750  -0.15572   1.91191   0.19759
   90 F6      .YY       0.04852   0.05614  -0.08565   2.74319   0.21300
   91 F6      .ZZ       0.05614   0.04852  -0.08565   2.74319   0.15487
   92 F6      .XY      -0.00000  -0.02090   0.00000   0.00000   0.00567
   93 F6      .XZ      -0.02090  -0.00000  -0.00000  -0.00000  -0.00000
   94 F6      .YZ       0.00000   0.00000  -0.00000  -0.00000  -0.00000
   95 F7      .S        0.00878   0.00878   0.63310  -0.02366   0.05369
   96 F7      .S        0.13009   0.13009   2.35307  -0.08921   0.23504
   97 F7      .X        0.03135   0.03135   0.69806   0.00260  -0.03034
   98 F7      .Y       -0.00000  -0.05546  -0.00000   0.00000   0.03055
   99 F7      .Z       -0.05546  -0.00000  -0.00000   0.00000   0.00000
  100 F7      .S       -0.28629  -0.28629  -8.93405   0.39598  -1.06472
  101 F7      .X       -0.05201  -0.05201  -1.90220  -0.06592  -0.08844
  102 F7      .Y       -0.00000   0.01239  -0.00000  -0.00000   0.05705
  103 F7      .Z        0.01239  -0.00000   0.00000   0.00000   0.00000
  104 F7      .XX       0.05750   0.05750   1.91191  -0.15572   0.19759
  105 F7      .YY       0.04852   0.05614   2.74319  -0.08565   0.21300
  106 F7      .ZZ       0.05614   0.04852   2.74319  -0.08565   0.15487
  107 F7      .XY       0.00000   0.02090  -0.00000  -0.00000  -0.00567
  108 F7      .XZ       0.02090   0.00000   0.00000   0.00000   0.00000
  109 F7      .YZ       0.00000   0.00000   0.00000   0.00000  -0.00000
                         106       107       108       109
                           V         V         V         V    
     Eigenvalues --   105.43202 105.43202 105.43202 105.71260
    1 S1      .S       -0.00961  -0.00961  -0.00961   0.13581
    2 S1      .S       -0.04975  -0.04975  -0.04975  -0.90764
    3 S1      .X       -0.00000   0.00000   0.00000  -0.00000
    4 S1      .Y       -0.00000  -0.00000  -0.12186  -0.00000
    5 S1      .Z        0.12186  -0.12186  -0.00000  -0.00000
    6 S1      .S       -0.86945  -0.86945  -0.86945   4.92527
    7 S1      .X        0.00000  -0.00000  -0.00000   0.00000
    8 S1      .Y        0.00000   0.00000   0.89338   0.00000
    9 S1      .Z       -0.89338   0.89338   0.00000   0.00000
   10 S1      .S        2.64864   2.64864   2.64864   3.83172
   11 S1      .X        0.00000   0.00000   0.00000   0.00000
   12 S1      .Y        0.00000   0.00000   1.25004  -0.00000
   13 S1      .Z       -1.25004   1.25004  -0.00000   0.00000
   14 S1      .XX       0.10677   0.10677   0.10677  -2.68105
   15 S1      .YY       0.10677   0.10677   0.87369  -2.68105
   16 S1      .ZZ       0.87369   0.87369   0.10677  -2.68105
   17 S1      .XY       0.00000   0.00000   0.00000  -0.00000
   18 S1      .XZ      -0.00000  -0.00000  -0.00000   0.00000
   19 S1      .YZ      -0.00000   0.00000   0.00000   0.00000
   20 F2      .S       -0.02366   0.63310   0.05369   0.13507
   21 F2      .S       -0.08921   2.35307   0.23504   0.64921
   22 F2      .X       -0.00000  -0.00000  -0.00000  -0.00000
   23 F2      .Y        0.00000  -0.00000  -0.03055  -0.00000
   24 F2      .Z       -0.00260  -0.69806   0.03034   0.02950
   25 F2      .S        0.39598  -8.93405  -1.06472  -2.56424
   26 F2      .X       -0.00000  -0.00000  -0.00000  -0.00000
   27 F2      .Y       -0.00000  -0.00000  -0.05705  -0.00000
   28 F2      .Z        0.06592   1.90220   0.08844   0.17724
   29 F2      .XX      -0.08565   2.74319   0.15487   0.50075
   30 F2      .YY      -0.08565   2.74319   0.21300   0.50075
   31 F2      .ZZ      -0.15572   1.91191   0.19759   0.65740
   32 F2      .XY       0.00000  -0.00000  -0.00000  -0.00000
   33 F2      .XZ       0.00000   0.00000   0.00000   0.00000
   34 F2      .YZ       0.00000   0.00000  -0.00567   0.00000
   35 F3      .S        0.05369   0.05369   0.63310   0.13507
   36 F3      .S        0.23504   0.23504   2.35307   0.64921
   37 F3      .X       -0.00000  -0.00000  -0.00000   0.00000
   38 F3      .Y        0.03034   0.03034  -0.69806   0.02950
   39 F3      .Z        0.03055  -0.03055  -0.00000  -0.00000
   40 F3      .S       -1.06472  -1.06472  -8.93405  -2.56424
   41 F3      .X       -0.00000  -0.00000  -0.00000  -0.00000
   42 F3      .Y        0.08844   0.08844   1.90220   0.17724
   43 F3      .Z        0.05705  -0.05705   0.00000   0.00000
   44 F3      .XX       0.15487   0.15487   2.74319   0.50075
   45 F3      .YY       0.19759   0.19759   1.91191   0.65740
   46 F3      .ZZ       0.21300   0.21300   2.74319   0.50075
   47 F3      .XY       0.00000   0.00000   0.00000   0.00000
   48 F3      .XZ       0.00000   0.00000  -0.00000  -0.00000
   49 F3      .YZ       0.00567  -0.00567  -0.00000  -0.00000
   50 F4      .S        0.63310  -0.02366   0.05369   0.13507
   51 F4      .S        2.35307  -0.08921   0.23504   0.64921
   52 F4      .X       -0.00000  -0.00000  -0.00000  -0.00000
   53 F4      .Y       -0.00000  -0.00000  -0.03055  -0.00000
   54 F4      .Z        0.69806   0.00260  -0.03034  -0.02950
   55 F4      .S       -8.93405   0.39598  -1.06472  -2.56424
   56 F4      .X       -0.00000  -0.00000  -0.00000  -0.00000
   57 F4      .Y       -0.00000  -0.00000  -0.05705  -0.00000
   58 F4      .Z       -1.90220  -0.06592  -0.08844  -0.17724
   59 F4      .XX       2.74319  -0.08565   0.15487   0.50075
   60 F4      .YY       2.74319  -0.08565   0.21300   0.50075
   61 F4      .ZZ       1.91191  -0.15572   0.19759   0.65740
   62 F4      .XY      -0.00000  -0.00000  -0.00000  -0.00000
   63 F4      .XZ      -0.00000  -0.00000  -0.00000  -0.00000
   64 F4      .YZ      -0.00000  -0.00000   0.00567  -0.00000
   65 F5      .S        0.05369   0.05369  -0.02366   0.13507
   66 F5      .S        0.23504   0.23504  -0.08921   0.64921
   67 F5      .X       -0.00000  -0.00000  -0.00000  -0.00000
   68 F5      .Y       -0.03034  -0.03034   0.00260  -0.02950
   69 F5      .Z        0.03055  -0.03055   0.00000   0.00000
   70 F5      .S       -1.06472  -1.06472   0.39598  -2.56424
   71 F5      .X       -0.00000  -0.00000  -0.00000  -0.00000
   72 F5      .Y       -0.08844  -0.08844  -0.06592  -0.17724
   73 F5      .Z        0.05705  -0.05705   0.00000   0.00000
   74 F5      .XX       0.15487   0.15487  -0.08565   0.50075
   75 F5      .YY       0.19759   0.19759  -0.15572   0.65740
   76 F5      .ZZ       0.21300   0.21300  -0.08565   0.50075
   77 F5      .XY      -0.00000  -0.00000  -0.00000  -0.00000
   78 F5      .XZ      -0.00000   0.00000  -0.00000  -0.00000
   79 F5      .YZ      -0.00567   0.00567   0.00000   0.00000
   80 F6      .S        0.05369   0.05369   0.05369   0.13507
   81 F6      .S        0.23504   0.23504   0.23504   0.64921
   82 F6      .X        0.03034   0.03034   0.03034   0.02950
   83 F6      .Y       -0.00000  -0.00000  -0.03055  -0.00000
   84 F6      .Z        0.03055  -0.03055   0.00000  -0.00000
   85 F6      .S       -1.06472  -1.06472  -1.06472  -2.56424
   86 F6      .X        0.08844   0.08844   0.08844   0.17724
   87 F6      .Y       -0.00000  -0.00000  -0.05705  -0.00000
   88 F6      .Z        0.05705  -0.05705   0.00000   0.00000
   89 F6      .XX       0.19759   0.19759   0.19759   0.65740
   90 F6      .YY       0.15487   0.15487   0.21300   0.50075
   91 F6      .ZZ       0.21300   0.21300   0.15487   0.50075
   92 F6      .XY       0.00000   0.00000  -0.00567   0.00000
   93 F6      .XZ       0.00567  -0.00567  -0.00000  -0.00000
   94 F6      .YZ       0.00000   0.00000   0.00000  -0.00000
   95 F7      .S        0.05369   0.05369   0.05369   0.13507
   96 F7      .S        0.23504   0.23504   0.23504   0.64921
   97 F7      .X       -0.03034  -0.03034  -0.03034  -0.02950
   98 F7      .Y        0.00000  -0.00000  -0.03055  -0.00000
   99 F7      .Z        0.03055  -0.03055   0.00000   0.00000
  100 F7      .S       -1.06472  -1.06472  -1.06472  -2.56424
  101 F7      .X       -0.08844  -0.08844  -0.08844  -0.17724
  102 F7      .Y       -0.00000  -0.00000  -0.05705  -0.00000
  103 F7      .Z        0.05705  -0.05705   0.00000   0.00000
  104 F7      .XX       0.19759   0.19759   0.19759   0.65740
  105 F7      .YY       0.15487   0.15487   0.21300   0.50075
  106 F7      .ZZ       0.21300   0.21300   0.15487   0.50075
  107 F7      .XY      -0.00000  -0.00000   0.00567  -0.00000
  108 F7      .XZ      -0.00567   0.00567   0.00000   0.00000
  109 F7      .YZ      -0.00000   0.00000   0.00000  -0.00000
