 Entering Gaussian System, Link 0=g09
 Initial command:
 /home/Andriy.Zhugayevych/local/gaussian/g09/l1.exe "/scr/81839.mgmt.skoltech.ru/SF6_molec_B3LYPp2p_mgf/Gau-26160.inp" -scrdir="/scr/81839.mgmt.skoltech.ru/SF6_molec_B3LYPp2p_mgf/"
 Entering Link 1 = /home/Andriy.Zhugayevych/local/gaussian/g09/l1.exe PID=     26162.
  
 Copyright (c) 1988,1990,1992,1993,1995,1998,2003,2009,2013,
            Gaussian, Inc.  All Rights Reserved.
  
 This is part of the Gaussian(R) 09 program.  It is based on
 the Gaussian(R) 03 system (copyright 2003, Gaussian, Inc.),
 the Gaussian(R) 98 system (copyright 1998, Gaussian, Inc.),
 the Gaussian(R) 94 system (copyright 1995, Gaussian, Inc.),
 the Gaussian 92(TM) system (copyright 1992, Gaussian, Inc.),
 the Gaussian 90(TM) system (copyright 1990, Gaussian, Inc.),
 the Gaussian 88(TM) system (copyright 1988, Gaussian, Inc.),
 the Gaussian 86(TM) system (copyright 1986, Carnegie Mellon
 University), and the Gaussian 82(TM) system (copyright 1983,
 Carnegie Mellon University). Gaussian is a federally registered
 trademark of Gaussian, Inc.
  
 This software contains proprietary and confidential information,
 including trade secrets, belonging to Gaussian, Inc.
  
 This software is provided under written license and may be
 used, copied, transmitted, or stored only in accord with that
 written license.
  
 The following legend is applicable only to US Government
 contracts under FAR:
  
                    RESTRICTED RIGHTS LEGEND
  
 Use, reproduction and disclosure by the US Government is
 subject to restrictions as set forth in subparagraphs (a)
 and (c) of the Commercial Computer Software - Restricted
 Rights clause in FAR 52.227-19.
  
 Gaussian, Inc.
 340 Quinnipiac St., Bldg. 40, Wallingford CT 06492
  
  
 ---------------------------------------------------------------
 Warning -- This program may not be used in any manner that
 competes with the business of Gaussian, Inc. or will provide
 assistance to any competitor of Gaussian, Inc.  The licensee
 of this program is prohibited from giving any competitor of
 Gaussian, Inc. access to this program.  By using this program,
 the user acknowledges that Gaussian, Inc. is engaged in the
 business of creating and licensing software in the field of
 computational chemistry and represents and warrants to the
 licensee that it is not a competitor of Gaussian, Inc. and that
 it will not use this program in any manner prohibited above.
 ---------------------------------------------------------------
  

 Cite this work as:
 Gaussian 09, Revision D.01,
 M. J. Frisch, G. W. Trucks, H. B. Schlegel, G. E. Scuseria, 
 M. A. Robb, J. R. Cheeseman, G. Scalmani, V. Barone, B. Mennucci, 
 G. A. Petersson, H. Nakatsuji, M. Caricato, X. Li, H. P. Hratchian, 
 A. F. Izmaylov, J. Bloino, G. Zheng, J. L. Sonnenberg, M. Hada, 
 M. Ehara, K. Toyota, R. Fukuda, J. Hasegawa, M. Ishida, T. Nakajima, 
 Y. Honda, O. Kitao, H. Nakai, T. Vreven, J. A. Montgomery, Jr., 
 J. E. Peralta, F. Ogliaro, M. Bearpark, J. J. Heyd, E. Brothers, 
 K. N. Kudin, V. N. Staroverov, T. Keith, R. Kobayashi, J. Normand, 
 K. Raghavachari, A. Rendell, J. C. Burant, S. S. Iyengar, J. Tomasi, 
 M. Cossi, N. Rega, J. M. Millam, M. Klene, J. E. Knox, J. B. Cross, 
 V. Bakken, C. Adamo, J. Jaramillo, R. Gomperts, R. E. Stratmann, 
 O. Yazyev, A. J. Austin, R. Cammi, C. Pomelli, J. W. Ochterski, 
 R. L. Martin, K. Morokuma, V. G. Zakrzewski, G. A. Voth, 
 P. Salvador, J. J. Dannenberg, S. Dapprich, A. D. Daniels, 
 O. Farkas, J. B. Foresman, J. V. Ortiz, J. Cioslowski, 
 and D. J. Fox, Gaussian, Inc., Wallingford CT, 2013.
 
 ******************************************
 Gaussian 09:  ES64L-G09RevD.01 24-Apr-2013
                 4-Oct-2016 
 ******************************************
 %nprocshared=8
 Will use up to    8 processors via shared memory.
 %mem=24GB
 -----------------------------------------
 #T B3LYP 6-31G* gfprint pop(full) Density
 -----------------------------------------


 Symbolic Z-matrix:
 Charge =  0 Multiplicity = 1
 S                     0.        0.        0. 
 F                     1.60036   0.        0. 
 F                     0.       -1.60036   0. 
 F                    -1.60036   0.        0. 
 F                     0.        1.60036   0. 
 F                     0.        0.        1.60036 
 F                     0.        0.       -1.60036 
 
                    Distance matrix (angstroms):
                    1          2          3          4          5
     1  S    0.000000
     2  F    1.600359   0.000000
     3  F    1.600359   2.263249   0.000000
     4  F    1.600359   3.200718   2.263249   0.000000
     5  F    1.600359   2.263249   3.200718   2.263249   0.000000
     6  F    1.600359   2.263249   2.263249   2.263249   2.263249
     7  F    1.600359   2.263249   2.263249   2.263249   2.263249
                    6          7
     6  F    0.000000
     7  F    3.200718   0.000000
 Framework group  OH[O(S),3C4(F.F)]
 Deg. of freedom     1
                         Standard orientation:                         
 ---------------------------------------------------------------------
 Center     Atomic      Atomic             Coordinates (Angstroms)
 Number     Number       Type             X           Y           Z
 ---------------------------------------------------------------------
      1         16           0        0.000000    0.000000    0.000000
      2          9           0        0.000000    0.000000    1.600359
      3          9           0        0.000000    1.600359    0.000000
      4          9           0        0.000000    0.000000   -1.600359
      5          9           0        0.000000   -1.600359    0.000000
      6          9           0        1.600359    0.000000    0.000000
      7          9           0       -1.600359    0.000000    0.000000
 ---------------------------------------------------------------------
 Rotational constants (GHZ):      2.5966013      2.5966013      2.5966013
 AO basis set (Overlap normalization):
 Atom S1       Shell     1 S   6     bf    1 -     1          0.000000000000          0.000000000000          0.000000000000
      0.2191710000D+05  0.1869240849D-02
      0.3301490000D+04  0.1423030646D-01
      0.7541460000D+03  0.6969623166D-01
      0.2127110000D+03  0.2384871083D+00
      0.6798960000D+02  0.4833072195D+00
      0.2305150000D+02  0.3380741536D+00
 Atom S1       Shell     2 SP   6    bf    2 -     5          0.000000000000          0.000000000000          0.000000000000
      0.4237350000D+03 -0.2376770499D-02  0.4061009982D-02
      0.1007100000D+03 -0.3169300665D-01  0.3068129986D-01
      0.3215990000D+02 -0.1133170238D+00  0.1304519994D+00
      0.1180790000D+02  0.5609001177D-01  0.3272049985D+00
      0.4631100000D+01  0.5922551243D+00  0.4528509980D+00
      0.1870250000D+01  0.4550060955D+00  0.2560419989D+00
 Atom S1       Shell     3 SP   3    bf    6 -     9          0.000000000000          0.000000000000          0.000000000000
      0.2615840000D+01 -0.2503731142D+00 -0.1451048955D-01
      0.9221670000D+00  0.6695676310D-01  0.3102627765D+00
      0.3412870000D+00  0.1054506269D+01  0.7544824565D+00
 Atom S1       Shell     4 SP   1    bf   10 -    13          0.000000000000          0.000000000000          0.000000000000
      0.1171670000D+00  0.1000000000D+01  0.1000000000D+01
 Atom S1       Shell     5 D   1     bf   14 -    19          0.000000000000          0.000000000000          0.000000000000
      0.6500000000D+00  0.1000000000D+01
 Atom F2       Shell     6 S   6     bf   20 -    20          0.000000000000          0.000000000000          3.024240224299
      0.7001713090D+04  0.1819616901D-02
      0.1051366090D+04  0.1391607961D-01
      0.2392856900D+03  0.6840532453D-01
      0.6739744530D+02  0.2331857601D+00
      0.2151995730D+02  0.4712674392D+00
      0.7403101300D+01  0.3566185462D+00
 Atom F2       Shell     7 SP   3    bf   21 -    24          0.000000000000          0.000000000000          3.024240224299
      0.2084795280D+02 -0.1085069751D+00  0.7162872424D-01
      0.4808308340D+01 -0.1464516581D+00  0.3459121027D+00
      0.1344069860D+01  0.1128688581D+01  0.7224699564D+00
 Atom F2       Shell     8 SP   1    bf   25 -    28          0.000000000000          0.000000000000          3.024240224299
      0.3581513930D+00  0.1000000000D+01  0.1000000000D+01
 Atom F2       Shell     9 D   1     bf   29 -    34          0.000000000000          0.000000000000          3.024240224299
      0.8000000000D+00  0.1000000000D+01
 Atom F3       Shell    10 S   6     bf   35 -    35          0.000000000000          3.024240224299          0.000000000000
      0.7001713090D+04  0.1819616901D-02
      0.1051366090D+04  0.1391607961D-01
      0.2392856900D+03  0.6840532453D-01
      0.6739744530D+02  0.2331857601D+00
      0.2151995730D+02  0.4712674392D+00
      0.7403101300D+01  0.3566185462D+00
 Atom F3       Shell    11 SP   3    bf   36 -    39          0.000000000000          3.024240224299          0.000000000000
      0.2084795280D+02 -0.1085069751D+00  0.7162872424D-01
      0.4808308340D+01 -0.1464516581D+00  0.3459121027D+00
      0.1344069860D+01  0.1128688581D+01  0.7224699564D+00
 Atom F3       Shell    12 SP   1    bf   40 -    43          0.000000000000          3.024240224299          0.000000000000
      0.3581513930D+00  0.1000000000D+01  0.1000000000D+01
 Atom F3       Shell    13 D   1     bf   44 -    49          0.000000000000          3.024240224299          0.000000000000
      0.8000000000D+00  0.1000000000D+01
 Atom F4       Shell    14 S   6     bf   50 -    50          0.000000000000          0.000000000000         -3.024240224299
      0.7001713090D+04  0.1819616901D-02
      0.1051366090D+04  0.1391607961D-01
      0.2392856900D+03  0.6840532453D-01
      0.6739744530D+02  0.2331857601D+00
      0.2151995730D+02  0.4712674392D+00
      0.7403101300D+01  0.3566185462D+00
 Atom F4       Shell    15 SP   3    bf   51 -    54          0.000000000000          0.000000000000         -3.024240224299
      0.2084795280D+02 -0.1085069751D+00  0.7162872424D-01
      0.4808308340D+01 -0.1464516581D+00  0.3459121027D+00
      0.1344069860D+01  0.1128688581D+01  0.7224699564D+00
 Atom F4       Shell    16 SP   1    bf   55 -    58          0.000000000000          0.000000000000         -3.024240224299
      0.3581513930D+00  0.1000000000D+01  0.1000000000D+01
 Atom F4       Shell    17 D   1     bf   59 -    64          0.000000000000          0.000000000000         -3.024240224299
      0.8000000000D+00  0.1000000000D+01
 Atom F5       Shell    18 S   6     bf   65 -    65          0.000000000000         -3.024240224299          0.000000000000
      0.7001713090D+04  0.1819616901D-02
      0.1051366090D+04  0.1391607961D-01
      0.2392856900D+03  0.6840532453D-01
      0.6739744530D+02  0.2331857601D+00
      0.2151995730D+02  0.4712674392D+00
      0.7403101300D+01  0.3566185462D+00
 Atom F5       Shell    19 SP   3    bf   66 -    69          0.000000000000         -3.024240224299          0.000000000000
      0.2084795280D+02 -0.1085069751D+00  0.7162872424D-01
      0.4808308340D+01 -0.1464516581D+00  0.3459121027D+00
      0.1344069860D+01  0.1128688581D+01  0.7224699564D+00
 Atom F5       Shell    20 SP   1    bf   70 -    73          0.000000000000         -3.024240224299          0.000000000000
      0.3581513930D+00  0.1000000000D+01  0.1000000000D+01
 Atom F5       Shell    21 D   1     bf   74 -    79          0.000000000000         -3.024240224299          0.000000000000
      0.8000000000D+00  0.1000000000D+01
 Atom F6       Shell    22 S   6     bf   80 -    80          3.024240224299          0.000000000000          0.000000000000
      0.7001713090D+04  0.1819616901D-02
      0.1051366090D+04  0.1391607961D-01
      0.2392856900D+03  0.6840532453D-01
      0.6739744530D+02  0.2331857601D+00
      0.2151995730D+02  0.4712674392D+00
      0.7403101300D+01  0.3566185462D+00
 Atom F6       Shell    23 SP   3    bf   81 -    84          3.024240224299          0.000000000000          0.000000000000
      0.2084795280D+02 -0.1085069751D+00  0.7162872424D-01
      0.4808308340D+01 -0.1464516581D+00  0.3459121027D+00
      0.1344069860D+01  0.1128688581D+01  0.7224699564D+00
 Atom F6       Shell    24 SP   1    bf   85 -    88          3.024240224299          0.000000000000          0.000000000000
      0.3581513930D+00  0.1000000000D+01  0.1000000000D+01
 Atom F6       Shell    25 D   1     bf   89 -    94          3.024240224299          0.000000000000          0.000000000000
      0.8000000000D+00  0.1000000000D+01
 Atom F7       Shell    26 S   6     bf   95 -    95         -3.024240224299          0.000000000000          0.000000000000
      0.7001713090D+04  0.1819616901D-02
      0.1051366090D+04  0.1391607961D-01
      0.2392856900D+03  0.6840532453D-01
      0.6739744530D+02  0.2331857601D+00
      0.2151995730D+02  0.4712674392D+00
      0.7403101300D+01  0.3566185462D+00
 Atom F7       Shell    27 SP   3    bf   96 -    99         -3.024240224299          0.000000000000          0.000000000000
      0.2084795280D+02 -0.1085069751D+00  0.7162872424D-01
      0.4808308340D+01 -0.1464516581D+00  0.3459121027D+00
      0.1344069860D+01  0.1128688581D+01  0.7224699564D+00
 Atom F7       Shell    28 SP   1    bf  100 -   103         -3.024240224299          0.000000000000          0.000000000000
      0.3581513930D+00  0.1000000000D+01  0.1000000000D+01
 Atom F7       Shell    29 D   1     bf  104 -   109         -3.024240224299          0.000000000000          0.000000000000
      0.8000000000D+00  0.1000000000D+01
   109 basis functions,   220 primitive gaussians,   109 cartesian basis functions
    35 alpha electrons       35 beta electrons
       nuclear repulsion energy       553.1332391762 Hartrees.
 NAtoms=    7 NActive=    7 NUniq=    2 SFac= 4.00D+00 NAtFMM=   60 NAOKFM=F Big=F
 ExpMin= 1.17D-01 ExpMax= 2.19D+04 ExpMxC= 3.30D+03 IAcc=1 IRadAn=         1 AccDes= 0.00D+00
 Harris functional with IExCor=  402 and IRadAn=       1 diagonalized for initial guess.
 HarFok:  IExCor=  402 AccDes= 0.00D+00 IRadAn=         1 IDoV= 1 UseB2=F ITyADJ=14
 ICtDFT=  3500011 ScaDFX=  1.000000  1.000000  1.000000  1.000000
 FoFCou: FMM=F IPFlag=           0 FMFlag=      100000 FMFlg1=           0
         NFxFlg=           0 DoJE=T BraDBF=F KetDBF=T FulRan=T
         wScrn=  0.000000 ICntrl=     500 IOpCl=  0 I1Cent=   200000004 NGrid=           0
         NMat0=    1 NMatS0=      1 NMatT0=    0 NMatD0=    1 NMtDS0=    0 NMtDT0=    0
 Petite list used in FoFCou.
 Initial guess orbital symmetries:
       Occupied  (A1G) (A1G) (T1U) (T1U) (T1U) (EG) (EG) (A1G)
                 (T1U) (T1U) (T1U) (A1G) (T1U) (T1U) (T1U) (EG)
                 (EG) (A1G) (T1U) (T1U) (T1U) (T2G) (T2G) (T2G)
                 (EG) (EG) (T1U) (T1U) (T1U) (T2U) (T2U) (T2U)
                 (T1G) (T1G) (T1G)
       Virtual   (A1G) (T1U) (T1U) (T1U) (A1G) (T1U) (T1U) (T1U)
                 (T2G) (T2G) (T2G) (EG) (EG) (T2G) (T2G) (T2G)
                 (T1U) (T1U) (T1U) (EG) (EG) (A1G) (T2U) (T2U)
                 (T2U) (T1G) (T1G) (T1G) (EG) (EG) (T1U) (T1U)
                 (T1U) (T2U) (T2U) (T2U) (A2U) (T2G) (T2G) (T2G)
                 (EU) (EU) (EG) (EG) (A2G) (T2U) (T2U) (T2U) (T1U)
                 (T1U) (T1U) (T1G) (T1G) (T1G) (T1U) (T1U) (T1U)
                 (T2G) (T2G) (T2G) (A1G) (A1G) (T1U) (T1U) (T1U)
                 (EG) (EG) (EG) (EG) (A1G) (T1U) (T1U) (T1U) (A1G)
 The electronic state of the initial guess is 1-A1G.
 Integral accuracy reduced to 1.0D-05 until final iterations.
 Initial convergence to 1.0D-05 achieved.  Increase integral accuracy.
 SCF Done:  E(RB3LYP) =  -997.106743630     A.U. after   11 cycles
            NFock= 11  Conv=0.19D-08     -V/T= 2.0059

 **********************************************************************

            Population analysis using the SCF density.

 **********************************************************************

 Orbital symmetries:
       Occupied  (A1G) (A1G) (EG) (EG) (T1U) (T1U) (T1U) (A1G)
                 (T1U) (T1U) (T1U) (A1G) (T1U) (T1U) (T1U) (EG)
                 (EG) (A1G) (T1U) (T1U) (T1U) (T2G) (T2G) (T2G)
                 (EG) (EG) (T1U) (T1U) (T1U) (T2U) (T2U) (T2U)
                 (T1G) (T1G) (T1G)
       Virtual   (A1G) (T1U) (T1U) (T1U) (A1G) (T1U) (T1U) (T1U)
                 (T2G) (T2G) (T2G) (EG) (EG) (EG) (EG) (T2G) (T2G)
                 (T2G) (T1U) (T1U) (T1U) (A1G) (T2U) (T2U) (T2U)
                 (T1G) (T1G) (T1G) (EG) (EG) (T1U) (T1U) (T1U)
                 (T2U) (T2U) (T2U) (A2U) (T2G) (T2G) (T2G) (EU)
                 (EU) (EG) (EG) (A2G) (T2U) (T2U) (T2U) (T1U) (T1U)
                 (T1U) (T1G) (T1G) (T1G) (T2G) (T2G) (T2G) (T1U)
                 (T1U) (T1U) (A1G) (A1G) (T1U) (T1U) (T1U) (EG)
                 (EG) (EG) (EG) (A1G) (T1U) (T1U) (T1U) (A1G)
 The electronic state is 1-A1G.
 Alpha  occ. eigenvalues --  -89.34517 -24.76767 -24.76766 -24.76766 -24.76766
 Alpha  occ. eigenvalues --  -24.76766 -24.76766  -8.33810  -6.30504  -6.30504
 Alpha  occ. eigenvalues --   -6.30504  -1.38989  -1.27460  -1.27460  -1.27460
 Alpha  occ. eigenvalues --   -1.22851  -1.22851  -0.82145  -0.66192  -0.66192
 Alpha  occ. eigenvalues --   -0.66192  -0.54788  -0.54788  -0.54788  -0.52113
 Alpha  occ. eigenvalues --   -0.52113  -0.46870  -0.46870  -0.46870  -0.46452
 Alpha  occ. eigenvalues --   -0.46452  -0.46452  -0.42742  -0.42742  -0.42742
 Alpha virt. eigenvalues --   -0.08897   0.09392   0.09392   0.09392   0.27839
 Alpha virt. eigenvalues --    0.32624   0.32624   0.32624   0.48225   0.48225
 Alpha virt. eigenvalues --    0.48225   0.87338   0.87338   1.05591   1.05591
 Alpha virt. eigenvalues --    1.05654   1.05654   1.05654   1.10760   1.10760
 Alpha virt. eigenvalues --    1.10760   1.12173   1.15044   1.15044   1.15044
 Alpha virt. eigenvalues --    1.36739   1.36739   1.36739   1.38156   1.38156
 Alpha virt. eigenvalues --    1.47435   1.47435   1.47435   1.64289   1.64289
 Alpha virt. eigenvalues --    1.64289   1.67879   1.78345   1.78345   1.78345
 Alpha virt. eigenvalues --    1.81319   1.81319   1.89940   1.89940   1.91628
 Alpha virt. eigenvalues --    1.95855   1.95855   1.95855   1.96486   1.96486
 Alpha virt. eigenvalues --    1.96486   2.01299   2.01299   2.01299   2.04282
 Alpha virt. eigenvalues --    2.04282   2.04282   2.05138   2.05138   2.05138
 Alpha virt. eigenvalues --    2.30066   2.46957   2.49420   2.49420   2.49420
 Alpha virt. eigenvalues --    3.00858   3.00858   3.93628   3.93628   4.26758
 Alpha virt. eigenvalues --    4.86514   4.86514   4.86514   6.02545
     Molecular Orbital Coefficients:
                           1         2         3         4         5
                       (A1G)--O  (A1G)--O   (EG)--O   (EG)--O  (T1U)--O
     Eigenvalues --   -89.34517 -24.76767 -24.76766 -24.76766 -24.76766
   1 1   S  1S          0.99614   0.00001   0.00000   0.00000   0.00000
   2        2S          0.01497   0.00009   0.00000   0.00000   0.00000
   3        2PX         0.00000   0.00000   0.00000   0.00000  -0.00016
   4        2PY         0.00000   0.00000   0.00000   0.00000   0.00000
   5        2PZ         0.00000   0.00000   0.00000   0.00000   0.00000
   6        3S         -0.02346  -0.00065   0.00000   0.00000   0.00000
   7        3PX         0.00000   0.00000   0.00000   0.00000   0.00049
   8        3PY         0.00000   0.00000   0.00000   0.00000   0.00000
   9        3PZ         0.00000   0.00000   0.00000   0.00000   0.00000
  10        4S         -0.00073  -0.00414   0.00000   0.00000   0.00000
  11        4PX         0.00000   0.00000   0.00000   0.00000  -0.00189
  12        4PY         0.00000   0.00000   0.00000   0.00000   0.00000
  13        4PZ         0.00000   0.00000   0.00000   0.00000   0.00000
  14        5XX         0.00858   0.00100  -0.00053  -0.00081   0.00000
  15        5YY         0.00858   0.00100   0.00097  -0.00005   0.00000
  16        5ZZ         0.00858   0.00100  -0.00044   0.00087   0.00000
  17        5XY         0.00000   0.00000   0.00000   0.00000   0.00000
  18        5XZ         0.00000   0.00000   0.00000   0.00000   0.00000
  19        5YZ         0.00000   0.00000   0.00000   0.00000   0.00000
  20 2   F  1S         -0.00007   0.40530  -0.25901   0.51148   0.00000
  21        2S         -0.00040   0.00765  -0.00515   0.01017   0.00000
  22        2PX         0.00000   0.00000   0.00000   0.00000   0.00000
  23        2PY         0.00000   0.00000   0.00000   0.00000   0.00000
  24        2PZ         0.00004  -0.00028   0.00018  -0.00036   0.00000
  25        3S          0.00180   0.00783  -0.00380   0.00751   0.00000
  26        3PX         0.00000   0.00000   0.00000   0.00000   0.00002
  27        3PY         0.00000   0.00000   0.00000   0.00000   0.00000
  28        3PZ        -0.00044  -0.00002  -0.00012   0.00023   0.00000
  29        4XX        -0.00025  -0.00360   0.00214  -0.00400   0.00000
  30        4YY        -0.00025  -0.00360   0.00196  -0.00409   0.00000
  31        4ZZ        -0.00047  -0.00381   0.00219  -0.00433   0.00000
  32        4XY         0.00000   0.00000   0.00000   0.00000   0.00000
  33        4XZ         0.00000   0.00000   0.00000   0.00000   0.00013
  34        4YZ         0.00000   0.00000   0.00000   0.00000   0.00000
  35 3   F  1S         -0.00007   0.40530   0.57246  -0.03143   0.00000
  36        2S         -0.00040   0.00765   0.01138  -0.00063   0.00000
  37        2PX         0.00000   0.00000   0.00000   0.00000   0.00000
  38        2PY         0.00004  -0.00028  -0.00040   0.00002   0.00000
  39        2PZ         0.00000   0.00000   0.00000   0.00000   0.00000
  40        3S          0.00180   0.00783   0.00840  -0.00046   0.00000
  41        3PX         0.00000   0.00000   0.00000   0.00000   0.00002
  42        3PY        -0.00044  -0.00002   0.00026  -0.00001   0.00000
  43        3PZ         0.00000   0.00000   0.00000   0.00000   0.00000
  44        4XX        -0.00025  -0.00360  -0.00452   0.00035   0.00000
  45        4YY        -0.00047  -0.00381  -0.00485   0.00027   0.00000
  46        4ZZ        -0.00025  -0.00360  -0.00454   0.00015   0.00000
  47        4XY         0.00000   0.00000   0.00000   0.00000   0.00013
  48        4XZ         0.00000   0.00000   0.00000   0.00000   0.00000
  49        4YZ         0.00000   0.00000   0.00000   0.00000   0.00000
  50 4   F  1S         -0.00007   0.40530  -0.25901   0.51148   0.00000
  51        2S         -0.00040   0.00765  -0.00515   0.01017   0.00000
  52        2PX         0.00000   0.00000   0.00000   0.00000   0.00000
  53        2PY         0.00000   0.00000   0.00000   0.00000   0.00000
  54        2PZ        -0.00004   0.00028  -0.00018   0.00036   0.00000
  55        3S          0.00180   0.00783  -0.00380   0.00751   0.00000
  56        3PX         0.00000   0.00000   0.00000   0.00000   0.00002
  57        3PY         0.00000   0.00000   0.00000   0.00000   0.00000
  58        3PZ         0.00044   0.00002   0.00012  -0.00023   0.00000
  59        4XX        -0.00025  -0.00360   0.00214  -0.00400   0.00000
  60        4YY        -0.00025  -0.00360   0.00196  -0.00409   0.00000
  61        4ZZ        -0.00047  -0.00381   0.00219  -0.00433   0.00000
  62        4XY         0.00000   0.00000   0.00000   0.00000   0.00000
  63        4XZ         0.00000   0.00000   0.00000   0.00000  -0.00013
  64        4YZ         0.00000   0.00000   0.00000   0.00000   0.00000
  65 5   F  1S         -0.00007   0.40530   0.57246  -0.03143   0.00000
  66        2S         -0.00040   0.00765   0.01138  -0.00063   0.00000
  67        2PX         0.00000   0.00000   0.00000   0.00000   0.00000
  68        2PY        -0.00004   0.00028   0.00040  -0.00002   0.00000
  69        2PZ         0.00000   0.00000   0.00000   0.00000   0.00000
  70        3S          0.00180   0.00783   0.00840  -0.00046   0.00000
  71        3PX         0.00000   0.00000   0.00000   0.00000   0.00002
  72        3PY         0.00044   0.00002  -0.00026   0.00001   0.00000
  73        3PZ         0.00000   0.00000   0.00000   0.00000   0.00000
  74        4XX        -0.00025  -0.00360  -0.00452   0.00035   0.00000
  75        4YY        -0.00047  -0.00381  -0.00485   0.00027   0.00000
  76        4ZZ        -0.00025  -0.00360  -0.00454   0.00015   0.00000
  77        4XY         0.00000   0.00000   0.00000   0.00000  -0.00013
  78        4XZ         0.00000   0.00000   0.00000   0.00000   0.00000
  79        4YZ         0.00000   0.00000   0.00000   0.00000   0.00000
  80 6   F  1S         -0.00007   0.40530  -0.31345  -0.48005   0.70203
  81        2S         -0.00040   0.00765  -0.00623  -0.00955   0.01319
  82        2PX         0.00004  -0.00028   0.00022   0.00034  -0.00045
  83        2PY         0.00000   0.00000   0.00000   0.00000   0.00000
  84        2PZ         0.00000   0.00000   0.00000   0.00000   0.00000
  85        3S          0.00180   0.00783  -0.00460  -0.00705   0.01307
  86        3PX        -0.00044  -0.00002  -0.00014  -0.00022  -0.00008
  87        3PY         0.00000   0.00000   0.00000   0.00000   0.00000
  88        3PZ         0.00000   0.00000   0.00000   0.00000   0.00000
  89        4XX        -0.00047  -0.00381   0.00265   0.00406  -0.00632
  90        4YY        -0.00025  -0.00360   0.00240   0.00385  -0.00620
  91        4ZZ        -0.00025  -0.00360   0.00257   0.00374  -0.00620
  92        4XY         0.00000   0.00000   0.00000   0.00000   0.00000
  93        4XZ         0.00000   0.00000   0.00000   0.00000   0.00000
  94        4YZ         0.00000   0.00000   0.00000   0.00000   0.00000
  95 7   F  1S         -0.00007   0.40530  -0.31345  -0.48005  -0.70203
  96        2S         -0.00040   0.00765  -0.00623  -0.00955  -0.01319
  97        2PX        -0.00004   0.00028  -0.00022  -0.00034  -0.00045
  98        2PY         0.00000   0.00000   0.00000   0.00000   0.00000
  99        2PZ         0.00000   0.00000   0.00000   0.00000   0.00000
 100        3S          0.00180   0.00783  -0.00460  -0.00705  -0.01307
 101        3PX         0.00044   0.00002   0.00014   0.00022  -0.00008
 102        3PY         0.00000   0.00000   0.00000   0.00000   0.00000
 103        3PZ         0.00000   0.00000   0.00000   0.00000   0.00000
 104        4XX        -0.00047  -0.00381   0.00265   0.00406   0.00632
 105        4YY        -0.00025  -0.00360   0.00240   0.00385   0.00620
 106        4ZZ        -0.00025  -0.00360   0.00257   0.00374   0.00620
 107        4XY         0.00000   0.00000   0.00000   0.00000   0.00000
 108        4XZ         0.00000   0.00000   0.00000   0.00000   0.00000
 109        4YZ         0.00000   0.00000   0.00000   0.00000   0.00000
                           6         7         8         9        10
                       (T1U)--O  (T1U)--O  (A1G)--O  (T1U)--O  (T1U)--O
     Eigenvalues --   -24.76766 -24.76766  -8.33810  -6.30504  -6.30504
   1 1   S  1S          0.00000   0.00000  -0.28018   0.00000   0.00000
   2        2S          0.00000   0.00000   1.02334   0.00000   0.00000
   3        2PX         0.00000   0.00000   0.00000   0.00000   0.00000
   4        2PY         0.00000  -0.00016   0.00000   0.99143   0.00000
   5        2PZ        -0.00016   0.00000   0.00000   0.00000   0.99143
   6        3S          0.00000   0.00000   0.06070   0.00000   0.00000
   7        3PX         0.00000   0.00000   0.00000   0.00000   0.00000
   8        3PY         0.00000   0.00049   0.00000   0.02989   0.00000
   9        3PZ         0.00049   0.00000   0.00000   0.00000   0.02989
  10        4S          0.00000   0.00000   0.00207   0.00000   0.00000
  11        4PX         0.00000   0.00000   0.00000   0.00000   0.00000
  12        4PY         0.00000  -0.00189   0.00000   0.00038   0.00000
  13        4PZ        -0.00189   0.00000   0.00000   0.00000   0.00038
  14        5XX         0.00000   0.00000  -0.01139   0.00000   0.00000
  15        5YY         0.00000   0.00000  -0.01139   0.00000   0.00000
  16        5ZZ         0.00000   0.00000  -0.01139   0.00000   0.00000
  17        5XY         0.00000   0.00000   0.00000   0.00000   0.00000
  18        5XZ         0.00000   0.00000   0.00000   0.00000   0.00000
  19        5YZ         0.00000   0.00000   0.00000   0.00000   0.00000
  20 2   F  1S          0.70203   0.00000   0.00026   0.00000   0.00028
  21        2S          0.01319   0.00000   0.00190   0.00000   0.00265
  22        2PX         0.00000   0.00000   0.00000   0.00000   0.00000
  23        2PY         0.00000   0.00000   0.00000   0.00017   0.00000
  24        2PZ        -0.00045   0.00000  -0.00024   0.00000  -0.00038
  25        3S          0.01307   0.00000  -0.00706   0.00000  -0.00983
  26        3PX         0.00000   0.00000   0.00000   0.00000   0.00000
  27        3PY         0.00000   0.00002   0.00000  -0.00128   0.00000
  28        3PZ        -0.00008   0.00000   0.00313   0.00000   0.00416
  29        4XX        -0.00620   0.00000   0.00126   0.00000   0.00165
  30        4YY        -0.00620   0.00000   0.00126   0.00000   0.00165
  31        4ZZ        -0.00632   0.00000   0.00035   0.00000   0.00093
  32        4XY         0.00000   0.00000   0.00000   0.00000   0.00000
  33        4XZ         0.00000   0.00000   0.00000   0.00000   0.00000
  34        4YZ         0.00000   0.00013   0.00000   0.00089   0.00000
  35 3   F  1S          0.00000   0.70203   0.00026   0.00028   0.00000
  36        2S          0.00000   0.01319   0.00190   0.00265   0.00000
  37        2PX         0.00000   0.00000   0.00000   0.00000   0.00000
  38        2PY         0.00000  -0.00045  -0.00024  -0.00038   0.00000
  39        2PZ         0.00000   0.00000   0.00000   0.00000   0.00017
  40        3S          0.00000   0.01307  -0.00706  -0.00983   0.00000
  41        3PX         0.00000   0.00000   0.00000   0.00000   0.00000
  42        3PY         0.00000  -0.00008   0.00313   0.00416   0.00000
  43        3PZ         0.00002   0.00000   0.00000   0.00000  -0.00128
  44        4XX         0.00000  -0.00620   0.00126   0.00165   0.00000
  45        4YY         0.00000  -0.00632   0.00035   0.00093   0.00000
  46        4ZZ         0.00000  -0.00620   0.00126   0.00165   0.00000
  47        4XY         0.00000   0.00000   0.00000   0.00000   0.00000
  48        4XZ         0.00000   0.00000   0.00000   0.00000   0.00000
  49        4YZ         0.00013   0.00000   0.00000   0.00000   0.00089
  50 4   F  1S         -0.70203   0.00000   0.00026   0.00000  -0.00028
  51        2S         -0.01319   0.00000   0.00190   0.00000  -0.00265
  52        2PX         0.00000   0.00000   0.00000   0.00000   0.00000
  53        2PY         0.00000   0.00000   0.00000   0.00017   0.00000
  54        2PZ        -0.00045   0.00000   0.00024   0.00000  -0.00038
  55        3S         -0.01307   0.00000  -0.00706   0.00000   0.00983
  56        3PX         0.00000   0.00000   0.00000   0.00000   0.00000
  57        3PY         0.00000   0.00002   0.00000  -0.00128   0.00000
  58        3PZ        -0.00008   0.00000  -0.00313   0.00000   0.00416
  59        4XX         0.00620   0.00000   0.00126   0.00000  -0.00165
  60        4YY         0.00620   0.00000   0.00126   0.00000  -0.00165
  61        4ZZ         0.00632   0.00000   0.00035   0.00000  -0.00093
  62        4XY         0.00000   0.00000   0.00000   0.00000   0.00000
  63        4XZ         0.00000   0.00000   0.00000   0.00000   0.00000
  64        4YZ         0.00000  -0.00013   0.00000  -0.00089   0.00000
  65 5   F  1S          0.00000  -0.70203   0.00026  -0.00028   0.00000
  66        2S          0.00000  -0.01319   0.00190  -0.00265   0.00000
  67        2PX         0.00000   0.00000   0.00000   0.00000   0.00000
  68        2PY         0.00000  -0.00045   0.00024  -0.00038   0.00000
  69        2PZ         0.00000   0.00000   0.00000   0.00000   0.00017
  70        3S          0.00000  -0.01307  -0.00706   0.00983   0.00000
  71        3PX         0.00000   0.00000   0.00000   0.00000   0.00000
  72        3PY         0.00000  -0.00008  -0.00313   0.00416   0.00000
  73        3PZ         0.00002   0.00000   0.00000   0.00000  -0.00128
  74        4XX         0.00000   0.00620   0.00126  -0.00165   0.00000
  75        4YY         0.00000   0.00632   0.00035  -0.00093   0.00000
  76        4ZZ         0.00000   0.00620   0.00126  -0.00165   0.00000
  77        4XY         0.00000   0.00000   0.00000   0.00000   0.00000
  78        4XZ         0.00000   0.00000   0.00000   0.00000   0.00000
  79        4YZ        -0.00013   0.00000   0.00000   0.00000  -0.00089
  80 6   F  1S          0.00000   0.00000   0.00026   0.00000   0.00000
  81        2S          0.00000   0.00000   0.00190   0.00000   0.00000
  82        2PX         0.00000   0.00000  -0.00024   0.00000   0.00000
  83        2PY         0.00000   0.00000   0.00000   0.00017   0.00000
  84        2PZ         0.00000   0.00000   0.00000   0.00000   0.00017
  85        3S          0.00000   0.00000  -0.00706   0.00000   0.00000
  86        3PX         0.00000   0.00000   0.00313   0.00000   0.00000
  87        3PY         0.00000   0.00002   0.00000  -0.00128   0.00000
  88        3PZ         0.00002   0.00000   0.00000   0.00000  -0.00128
  89        4XX         0.00000   0.00000   0.00035   0.00000   0.00000
  90        4YY         0.00000   0.00000   0.00126   0.00000   0.00000
  91        4ZZ         0.00000   0.00000   0.00126   0.00000   0.00000
  92        4XY         0.00000   0.00013   0.00000   0.00089   0.00000
  93        4XZ         0.00013   0.00000   0.00000   0.00000   0.00089
  94        4YZ         0.00000   0.00000   0.00000   0.00000   0.00000
  95 7   F  1S          0.00000   0.00000   0.00026   0.00000   0.00000
  96        2S          0.00000   0.00000   0.00190   0.00000   0.00000
  97        2PX         0.00000   0.00000   0.00024   0.00000   0.00000
  98        2PY         0.00000   0.00000   0.00000   0.00017   0.00000
  99        2PZ         0.00000   0.00000   0.00000   0.00000   0.00017
 100        3S          0.00000   0.00000  -0.00706   0.00000   0.00000
 101        3PX         0.00000   0.00000  -0.00313   0.00000   0.00000
 102        3PY         0.00000   0.00002   0.00000  -0.00128   0.00000
 103        3PZ         0.00002   0.00000   0.00000   0.00000  -0.00128
 104        4XX         0.00000   0.00000   0.00035   0.00000   0.00000
 105        4YY         0.00000   0.00000   0.00126   0.00000   0.00000
 106        4ZZ         0.00000   0.00000   0.00126   0.00000   0.00000
 107        4XY         0.00000  -0.00013   0.00000  -0.00089   0.00000
 108        4XZ        -0.00013   0.00000   0.00000   0.00000  -0.00089
 109        4YZ         0.00000   0.00000   0.00000   0.00000   0.00000
                          11        12        13        14        15
                       (T1U)--O  (A1G)--O  (T1U)--O  (T1U)--O  (T1U)--O
     Eigenvalues --    -6.30504  -1.38989  -1.27460  -1.27460  -1.27460
   1 1   S  1S          0.00000   0.04126   0.00000   0.00000   0.00000
   2        2S          0.00000  -0.18271   0.00000   0.00000   0.00000
   3        2PX         0.99143   0.00000   0.00000   0.00000  -0.08626
   4        2PY         0.00000   0.00000  -0.08626   0.00000   0.00000
   5        2PZ         0.00000   0.00000   0.00000  -0.08626   0.00000
   6        3S          0.00000   0.37389   0.00000   0.00000   0.00000
   7        3PX         0.02989   0.00000   0.00000   0.00000   0.17865
   8        3PY         0.00000   0.00000   0.17865   0.00000   0.00000
   9        3PZ         0.00000   0.00000   0.00000   0.17865   0.00000
  10        4S          0.00000  -0.01133   0.00000   0.00000   0.00000
  11        4PX         0.00038   0.00000   0.00000   0.00000  -0.00770
  12        4PY         0.00000   0.00000  -0.00770   0.00000   0.00000
  13        4PZ         0.00000   0.00000   0.00000  -0.00770   0.00000
  14        5XX         0.00000  -0.00293   0.00000   0.00000   0.00000
  15        5YY         0.00000  -0.00293   0.00000   0.00000   0.00000
  16        5ZZ         0.00000  -0.00293   0.00000   0.00000   0.00000
  17        5XY         0.00000   0.00000   0.00000   0.00000   0.00000
  18        5XZ         0.00000   0.00000   0.00000   0.00000   0.00000
  19        5YZ         0.00000   0.00000   0.00000   0.00000   0.00000
  20 2   F  1S          0.00000  -0.07636   0.00000  -0.15700   0.00000
  21        2S          0.00000   0.16989   0.00000   0.35314   0.00000
  22        2PX         0.00017   0.00000   0.00000   0.00000   0.01302
  23        2PY         0.00000   0.00000   0.01302   0.00000   0.00000
  24        2PZ         0.00000  -0.05214   0.00000  -0.06724   0.00000
  25        3S          0.00000   0.15072   0.00000   0.32434   0.00000
  26        3PX        -0.00128   0.00000   0.00000   0.00000   0.00524
  27        3PY         0.00000   0.00000   0.00524   0.00000   0.00000
  28        3PZ         0.00000  -0.02668   0.00000  -0.03925   0.00000
  29        4XX         0.00000   0.00295   0.00000   0.00520   0.00000
  30        4YY         0.00000   0.00295   0.00000   0.00520   0.00000
  31        4ZZ         0.00000   0.01494   0.00000   0.02711   0.00000
  32        4XY         0.00000   0.00000   0.00000   0.00000   0.00000
  33        4XZ         0.00089   0.00000   0.00000   0.00000   0.00006
  34        4YZ         0.00000   0.00000   0.00006   0.00000   0.00000
  35 3   F  1S          0.00000  -0.07636  -0.15700   0.00000   0.00000
  36        2S          0.00000   0.16989   0.35314   0.00000   0.00000
  37        2PX         0.00017   0.00000   0.00000   0.00000   0.01302
  38        2PY         0.00000  -0.05214  -0.06724   0.00000   0.00000
  39        2PZ         0.00000   0.00000   0.00000   0.01302   0.00000
  40        3S          0.00000   0.15072   0.32434   0.00000   0.00000
  41        3PX        -0.00128   0.00000   0.00000   0.00000   0.00524
  42        3PY         0.00000  -0.02668  -0.03925   0.00000   0.00000
  43        3PZ         0.00000   0.00000   0.00000   0.00524   0.00000
  44        4XX         0.00000   0.00295   0.00520   0.00000   0.00000
  45        4YY         0.00000   0.01494   0.02711   0.00000   0.00000
  46        4ZZ         0.00000   0.00295   0.00520   0.00000   0.00000
  47        4XY         0.00089   0.00000   0.00000   0.00000   0.00006
  48        4XZ         0.00000   0.00000   0.00000   0.00000   0.00000
  49        4YZ         0.00000   0.00000   0.00000   0.00006   0.00000
  50 4   F  1S          0.00000  -0.07636   0.00000   0.15700   0.00000
  51        2S          0.00000   0.16989   0.00000  -0.35314   0.00000
  52        2PX         0.00017   0.00000   0.00000   0.00000   0.01302
  53        2PY         0.00000   0.00000   0.01302   0.00000   0.00000
  54        2PZ         0.00000   0.05214   0.00000  -0.06724   0.00000
  55        3S          0.00000   0.15072   0.00000  -0.32434   0.00000
  56        3PX        -0.00128   0.00000   0.00000   0.00000   0.00524
  57        3PY         0.00000   0.00000   0.00524   0.00000   0.00000
  58        3PZ         0.00000   0.02668   0.00000  -0.03925   0.00000
  59        4XX         0.00000   0.00295   0.00000  -0.00520   0.00000
  60        4YY         0.00000   0.00295   0.00000  -0.00520   0.00000
  61        4ZZ         0.00000   0.01494   0.00000  -0.02711   0.00000
  62        4XY         0.00000   0.00000   0.00000   0.00000   0.00000
  63        4XZ        -0.00089   0.00000   0.00000   0.00000  -0.00006
  64        4YZ         0.00000   0.00000  -0.00006   0.00000   0.00000
  65 5   F  1S          0.00000  -0.07636   0.15700   0.00000   0.00000
  66        2S          0.00000   0.16989  -0.35314   0.00000   0.00000
  67        2PX         0.00017   0.00000   0.00000   0.00000   0.01302
  68        2PY         0.00000   0.05214  -0.06724   0.00000   0.00000
  69        2PZ         0.00000   0.00000   0.00000   0.01302   0.00000
  70        3S          0.00000   0.15072  -0.32434   0.00000   0.00000
  71        3PX        -0.00128   0.00000   0.00000   0.00000   0.00524
  72        3PY         0.00000   0.02668  -0.03925   0.00000   0.00000
  73        3PZ         0.00000   0.00000   0.00000   0.00524   0.00000
  74        4XX         0.00000   0.00295  -0.00520   0.00000   0.00000
  75        4YY         0.00000   0.01494  -0.02711   0.00000   0.00000
  76        4ZZ         0.00000   0.00295  -0.00520   0.00000   0.00000
  77        4XY        -0.00089   0.00000   0.00000   0.00000  -0.00006
  78        4XZ         0.00000   0.00000   0.00000   0.00000   0.00000
  79        4YZ         0.00000   0.00000   0.00000  -0.00006   0.00000
  80 6   F  1S          0.00028  -0.07636   0.00000   0.00000  -0.15700
  81        2S          0.00265   0.16989   0.00000   0.00000   0.35314
  82        2PX        -0.00038  -0.05214   0.00000   0.00000  -0.06724
  83        2PY         0.00000   0.00000   0.01302   0.00000   0.00000
  84        2PZ         0.00000   0.00000   0.00000   0.01302   0.00000
  85        3S         -0.00983   0.15072   0.00000   0.00000   0.32434
  86        3PX         0.00416  -0.02668   0.00000   0.00000  -0.03925
  87        3PY         0.00000   0.00000   0.00524   0.00000   0.00000
  88        3PZ         0.00000   0.00000   0.00000   0.00524   0.00000
  89        4XX         0.00093   0.01494   0.00000   0.00000   0.02711
  90        4YY         0.00165   0.00295   0.00000   0.00000   0.00520
  91        4ZZ         0.00165   0.00295   0.00000   0.00000   0.00520
  92        4XY         0.00000   0.00000   0.00006   0.00000   0.00000
  93        4XZ         0.00000   0.00000   0.00000   0.00006   0.00000
  94        4YZ         0.00000   0.00000   0.00000   0.00000   0.00000
  95 7   F  1S         -0.00028  -0.07636   0.00000   0.00000   0.15700
  96        2S         -0.00265   0.16989   0.00000   0.00000  -0.35314
  97        2PX        -0.00038   0.05214   0.00000   0.00000  -0.06724
  98        2PY         0.00000   0.00000   0.01302   0.00000   0.00000
  99        2PZ         0.00000   0.00000   0.00000   0.01302   0.00000
 100        3S          0.00983   0.15072   0.00000   0.00000  -0.32434
 101        3PX         0.00416   0.02668   0.00000   0.00000  -0.03925
 102        3PY         0.00000   0.00000   0.00524   0.00000   0.00000
 103        3PZ         0.00000   0.00000   0.00000   0.00524   0.00000
 104        4XX        -0.00093   0.01494   0.00000   0.00000  -0.02711
 105        4YY        -0.00165   0.00295   0.00000   0.00000  -0.00520
 106        4ZZ        -0.00165   0.00295   0.00000   0.00000  -0.00520
 107        4XY         0.00000   0.00000  -0.00006   0.00000   0.00000
 108        4XZ         0.00000   0.00000   0.00000  -0.00006   0.00000
 109        4YZ         0.00000   0.00000   0.00000   0.00000   0.00000
                          16        17        18        19        20
                        (EG)--O   (EG)--O  (A1G)--O  (T1U)--O  (T1U)--O
     Eigenvalues --    -1.22851  -1.22851  -0.82145  -0.66192  -0.66192
   1 1   S  1S          0.00000   0.00000   0.06132   0.00000   0.00000
   2        2S          0.00000   0.00000  -0.25870   0.00000   0.00000
   3        2PX         0.00000   0.00000   0.00000   0.00000   0.00000
   4        2PY         0.00000   0.00000   0.00000  -0.17621   0.00000
   5        2PZ         0.00000   0.00000   0.00000   0.00000  -0.17621
   6        3S          0.00000   0.00000   0.70225   0.00000   0.00000
   7        3PX         0.00000   0.00000   0.00000   0.00000   0.00000
   8        3PY         0.00000   0.00000   0.00000   0.46774   0.00000
   9        3PZ         0.00000   0.00000   0.00000   0.00000   0.46774
  10        4S          0.00000   0.00000  -0.03049   0.00000   0.00000
  11        4PX         0.00000   0.00000   0.00000   0.00000   0.00000
  12        4PY         0.00000   0.00000   0.00000   0.00660   0.00000
  13        4PZ         0.00000   0.00000   0.00000   0.00000   0.00660
  14        5XX        -0.01942   0.07086  -0.01319   0.00000   0.00000
  15        5YY        -0.05165  -0.05225  -0.01319   0.00000   0.00000
  16        5ZZ         0.07107  -0.01861  -0.01319   0.00000   0.00000
  17        5XY         0.00000   0.00000   0.00000   0.00000   0.00000
  18        5XZ         0.00000   0.00000   0.00000   0.00000   0.00000
  19        5YZ         0.00000   0.00000   0.00000   0.00000   0.00000
  20 2   F  1S         -0.13220   0.03462   0.05859   0.00000   0.06047
  21        2S          0.29826  -0.07811  -0.13715   0.00000  -0.13440
  22        2PX         0.00000   0.00000   0.00000   0.00000   0.00000
  23        2PY         0.00000   0.00000   0.00000   0.10955   0.00000
  24        2PZ        -0.04237   0.01110  -0.13632   0.00000  -0.31853
  25        3S          0.28647  -0.07502  -0.15410   0.00000  -0.20294
  26        3PX         0.00000   0.00000   0.00000   0.00000   0.00000
  27        3PY         0.00000   0.00000   0.00000   0.06879   0.00000
  28        3PZ        -0.02794   0.00732  -0.07614   0.00000  -0.17923
  29        4XX         0.00438  -0.00005  -0.00515   0.00000  -0.00247
  30        4YY         0.00384  -0.00210  -0.00515   0.00000  -0.00247
  31        4ZZ         0.01514  -0.00396   0.00729   0.00000   0.01739
  32        4XY         0.00000   0.00000   0.00000   0.00000   0.00000
  33        4XZ         0.00000   0.00000   0.00000   0.00000   0.00000
  34        4YZ         0.00000   0.00000   0.00000  -0.00755   0.00000
  35 3   F  1S          0.09608   0.09718   0.05859   0.06047   0.00000
  36        2S         -0.21677  -0.21925  -0.13715  -0.13440   0.00000
  37        2PX         0.00000   0.00000   0.00000   0.00000   0.00000
  38        2PY         0.03079   0.03114  -0.13632  -0.31853   0.00000
  39        2PZ         0.00000   0.00000   0.00000   0.00000   0.10955
  40        3S         -0.20820  -0.21058  -0.15410  -0.20294   0.00000
  41        3PX         0.00000   0.00000   0.00000   0.00000   0.00000
  42        3PY         0.02031   0.02054  -0.07614  -0.17923   0.00000
  43        3PZ         0.00000   0.00000   0.00000   0.00000   0.06879
  44        4XX        -0.00374  -0.00228  -0.00515  -0.00247   0.00000
  45        4YY        -0.01100  -0.01113   0.00729   0.01739   0.00000
  46        4ZZ        -0.00223  -0.00376  -0.00515  -0.00247   0.00000
  47        4XY         0.00000   0.00000   0.00000   0.00000   0.00000
  48        4XZ         0.00000   0.00000   0.00000   0.00000   0.00000
  49        4YZ         0.00000   0.00000   0.00000   0.00000  -0.00755
  50 4   F  1S         -0.13220   0.03462   0.05859   0.00000  -0.06047
  51        2S          0.29826  -0.07811  -0.13715   0.00000   0.13440
  52        2PX         0.00000   0.00000   0.00000   0.00000   0.00000
  53        2PY         0.00000   0.00000   0.00000   0.10955   0.00000
  54        2PZ         0.04237  -0.01110   0.13632   0.00000  -0.31853
  55        3S          0.28647  -0.07502  -0.15410   0.00000   0.20294
  56        3PX         0.00000   0.00000   0.00000   0.00000   0.00000
  57        3PY         0.00000   0.00000   0.00000   0.06879   0.00000
  58        3PZ         0.02794  -0.00732   0.07614   0.00000  -0.17923
  59        4XX         0.00438  -0.00005  -0.00515   0.00000   0.00247
  60        4YY         0.00384  -0.00210  -0.00515   0.00000   0.00247
  61        4ZZ         0.01514  -0.00396   0.00729   0.00000  -0.01739
  62        4XY         0.00000   0.00000   0.00000   0.00000   0.00000
  63        4XZ         0.00000   0.00000   0.00000   0.00000   0.00000
  64        4YZ         0.00000   0.00000   0.00000   0.00755   0.00000
  65 5   F  1S          0.09608   0.09718   0.05859  -0.06047   0.00000
  66        2S         -0.21677  -0.21925  -0.13715   0.13440   0.00000
  67        2PX         0.00000   0.00000   0.00000   0.00000   0.00000
  68        2PY        -0.03079  -0.03114   0.13632  -0.31853   0.00000
  69        2PZ         0.00000   0.00000   0.00000   0.00000   0.10955
  70        3S         -0.20820  -0.21058  -0.15410   0.20294   0.00000
  71        3PX         0.00000   0.00000   0.00000   0.00000   0.00000
  72        3PY        -0.02031  -0.02054   0.07614  -0.17923   0.00000
  73        3PZ         0.00000   0.00000   0.00000   0.00000   0.06879
  74        4XX        -0.00374  -0.00228  -0.00515   0.00247   0.00000
  75        4YY        -0.01100  -0.01113   0.00729  -0.01739   0.00000
  76        4ZZ        -0.00223  -0.00376  -0.00515   0.00247   0.00000
  77        4XY         0.00000   0.00000   0.00000   0.00000   0.00000
  78        4XZ         0.00000   0.00000   0.00000   0.00000   0.00000
  79        4YZ         0.00000   0.00000   0.00000   0.00000   0.00755
  80 6   F  1S          0.03612  -0.13180   0.05859   0.00000   0.00000
  81        2S         -0.08149   0.29735  -0.13715   0.00000   0.00000
  82        2PX         0.01158  -0.04224  -0.13632   0.00000   0.00000
  83        2PY         0.00000   0.00000   0.00000   0.10955   0.00000
  84        2PZ         0.00000   0.00000   0.00000   0.00000   0.10955
  85        3S         -0.07827   0.28560  -0.15410   0.00000   0.00000
  86        3PX         0.00763  -0.02785  -0.07614   0.00000   0.00000
  87        3PY         0.00000   0.00000   0.00000   0.06879   0.00000
  88        3PZ         0.00000   0.00000   0.00000   0.00000   0.06879
  89        4XX        -0.00414   0.01509   0.00729   0.00000   0.00000
  90        4YY        -0.00214   0.00382  -0.00515   0.00000   0.00000
  91        4ZZ        -0.00010   0.00437  -0.00515   0.00000   0.00000
  92        4XY         0.00000   0.00000   0.00000  -0.00755   0.00000
  93        4XZ         0.00000   0.00000   0.00000   0.00000  -0.00755
  94        4YZ         0.00000   0.00000   0.00000   0.00000   0.00000
  95 7   F  1S          0.03612  -0.13180   0.05859   0.00000   0.00000
  96        2S         -0.08149   0.29735  -0.13715   0.00000   0.00000
  97        2PX        -0.01158   0.04224   0.13632   0.00000   0.00000
  98        2PY         0.00000   0.00000   0.00000   0.10955   0.00000
  99        2PZ         0.00000   0.00000   0.00000   0.00000   0.10955
 100        3S         -0.07827   0.28560  -0.15410   0.00000   0.00000
 101        3PX        -0.00763   0.02785   0.07614   0.00000   0.00000
 102        3PY         0.00000   0.00000   0.00000   0.06879   0.00000
 103        3PZ         0.00000   0.00000   0.00000   0.00000   0.06879
 104        4XX        -0.00414   0.01509   0.00729   0.00000   0.00000
 105        4YY        -0.00214   0.00382  -0.00515   0.00000   0.00000
 106        4ZZ        -0.00010   0.00437  -0.00515   0.00000   0.00000
 107        4XY         0.00000   0.00000   0.00000   0.00755   0.00000
 108        4XZ         0.00000   0.00000   0.00000   0.00000   0.00755
 109        4YZ         0.00000   0.00000   0.00000   0.00000   0.00000
                          21        22        23        24        25
                       (T1U)--O  (T2G)--O  (T2G)--O  (T2G)--O   (EG)--O
     Eigenvalues --    -0.66192  -0.54788  -0.54788  -0.54788  -0.52113
   1 1   S  1S          0.00000   0.00000   0.00000   0.00000   0.00000
   2        2S          0.00000   0.00000   0.00000   0.00000   0.00000
   3        2PX        -0.17621   0.00000   0.00000   0.00000   0.00000
   4        2PY         0.00000   0.00000   0.00000   0.00000   0.00000
   5        2PZ         0.00000   0.00000   0.00000   0.00000   0.00000
   6        3S          0.00000   0.00000   0.00000   0.00000   0.00000
   7        3PX         0.46774   0.00000   0.00000   0.00000   0.00000
   8        3PY         0.00000   0.00000   0.00000   0.00000   0.00000
   9        3PZ         0.00000   0.00000   0.00000   0.00000   0.00000
  10        4S          0.00000   0.00000   0.00000   0.00000   0.00000
  11        4PX         0.00660   0.00000   0.00000   0.00000   0.00000
  12        4PY         0.00000   0.00000   0.00000   0.00000   0.00000
  13        4PZ         0.00000   0.00000   0.00000   0.00000   0.00000
  14        5XX         0.00000   0.00000   0.00000   0.00000   0.04154
  15        5YY         0.00000   0.00000   0.00000   0.00000  -0.16112
  16        5ZZ         0.00000   0.00000   0.00000   0.00000   0.11958
  17        5XY         0.00000   0.00000   0.11284   0.00000   0.00000
  18        5XZ         0.00000   0.11284   0.00000   0.00000   0.00000
  19        5YZ         0.00000   0.00000   0.00000   0.11284   0.00000
  20 2   F  1S          0.00000   0.00000   0.00000   0.00000   0.01476
  21        2S          0.00000   0.00000   0.00000   0.00000  -0.02302
  22        2PX         0.10955   0.30427   0.00000   0.00000   0.00000
  23        2PY         0.00000   0.00000   0.00000   0.30427   0.00000
  24        2PZ         0.00000   0.00000   0.00000   0.00000  -0.27154
  25        3S          0.00000   0.00000   0.00000   0.00000  -0.05734
  26        3PX         0.06879   0.22944   0.00000   0.00000   0.00000
  27        3PY         0.00000   0.00000   0.00000   0.22944   0.00000
  28        3PZ         0.00000   0.00000   0.00000   0.00000  -0.17428
  29        4XX         0.00000   0.00000   0.00000   0.00000   0.00230
  30        4YY         0.00000   0.00000   0.00000   0.00000  -0.00030
  31        4ZZ         0.00000   0.00000   0.00000   0.00000   0.01287
  32        4XY         0.00000   0.00000   0.00581   0.00000   0.00000
  33        4XZ        -0.00755  -0.02121   0.00000   0.00000   0.00000
  34        4YZ         0.00000   0.00000   0.00000  -0.02121   0.00000
  35 3   F  1S          0.00000   0.00000   0.00000   0.00000  -0.01989
  36        2S          0.00000   0.00000   0.00000   0.00000   0.03102
  37        2PX         0.10955   0.00000   0.30427   0.00000   0.00000
  38        2PY         0.00000   0.00000   0.00000   0.00000   0.36587
  39        2PZ         0.00000   0.00000   0.00000   0.30427   0.00000
  40        3S          0.00000   0.00000   0.00000   0.00000   0.07726
  41        3PX         0.06879   0.00000   0.22944   0.00000   0.00000
  42        3PY         0.00000   0.00000   0.00000   0.00000   0.23482
  43        3PZ         0.00000   0.00000   0.00000   0.22944   0.00000
  44        4XX         0.00000   0.00000   0.00000   0.00000  -0.00185
  45        4YY         0.00000   0.00000   0.00000   0.00000  -0.01734
  46        4ZZ         0.00000   0.00000   0.00000   0.00000  -0.00085
  47        4XY        -0.00755   0.00000  -0.02121   0.00000   0.00000
  48        4XZ         0.00000   0.00581   0.00000   0.00000   0.00000
  49        4YZ         0.00000   0.00000   0.00000  -0.02121   0.00000
  50 4   F  1S          0.00000   0.00000   0.00000   0.00000   0.01476
  51        2S          0.00000   0.00000   0.00000   0.00000  -0.02302
  52        2PX         0.10955  -0.30427   0.00000   0.00000   0.00000
  53        2PY         0.00000   0.00000   0.00000  -0.30427   0.00000
  54        2PZ         0.00000   0.00000   0.00000   0.00000   0.27154
  55        3S          0.00000   0.00000   0.00000   0.00000  -0.05734
  56        3PX         0.06879  -0.22944   0.00000   0.00000   0.00000
  57        3PY         0.00000   0.00000   0.00000  -0.22944   0.00000
  58        3PZ         0.00000   0.00000   0.00000   0.00000   0.17428
  59        4XX         0.00000   0.00000   0.00000   0.00000   0.00230
  60        4YY         0.00000   0.00000   0.00000   0.00000  -0.00030
  61        4ZZ         0.00000   0.00000   0.00000   0.00000   0.01287
  62        4XY         0.00000   0.00000   0.00581   0.00000   0.00000
  63        4XZ         0.00755  -0.02121   0.00000   0.00000   0.00000
  64        4YZ         0.00000   0.00000   0.00000  -0.02121   0.00000
  65 5   F  1S          0.00000   0.00000   0.00000   0.00000  -0.01989
  66        2S          0.00000   0.00000   0.00000   0.00000   0.03102
  67        2PX         0.10955   0.00000  -0.30427   0.00000   0.00000
  68        2PY         0.00000   0.00000   0.00000   0.00000  -0.36587
  69        2PZ         0.00000   0.00000   0.00000  -0.30427   0.00000
  70        3S          0.00000   0.00000   0.00000   0.00000   0.07726
  71        3PX         0.06879   0.00000  -0.22944   0.00000   0.00000
  72        3PY         0.00000   0.00000   0.00000   0.00000  -0.23482
  73        3PZ         0.00000   0.00000   0.00000  -0.22944   0.00000
  74        4XX         0.00000   0.00000   0.00000   0.00000  -0.00185
  75        4YY         0.00000   0.00000   0.00000   0.00000  -0.01734
  76        4ZZ         0.00000   0.00000   0.00000   0.00000  -0.00085
  77        4XY         0.00755   0.00000  -0.02121   0.00000   0.00000
  78        4XZ         0.00000   0.00581   0.00000   0.00000   0.00000
  79        4YZ         0.00000   0.00000   0.00000  -0.02121   0.00000
  80 6   F  1S          0.06047   0.00000   0.00000   0.00000   0.00513
  81        2S         -0.13440   0.00000   0.00000   0.00000  -0.00800
  82        2PX        -0.31853   0.00000   0.00000   0.00000  -0.09433
  83        2PY         0.00000   0.00000   0.30427   0.00000   0.00000
  84        2PZ         0.00000   0.30427   0.00000   0.00000   0.00000
  85        3S         -0.20294   0.00000   0.00000   0.00000  -0.01992
  86        3PX        -0.17923   0.00000   0.00000   0.00000  -0.06054
  87        3PY         0.00000   0.00000   0.22944   0.00000   0.00000
  88        3PZ         0.00000   0.22944   0.00000   0.00000   0.00000
  89        4XX         0.01739   0.00000   0.00000   0.00000   0.00447
  90        4YY        -0.00247   0.00000   0.00000   0.00000  -0.00145
  91        4ZZ        -0.00247   0.00000   0.00000   0.00000   0.00214
  92        4XY         0.00000   0.00000  -0.02121   0.00000   0.00000
  93        4XZ         0.00000  -0.02121   0.00000   0.00000   0.00000
  94        4YZ         0.00000   0.00000   0.00000   0.00581   0.00000
  95 7   F  1S         -0.06047   0.00000   0.00000   0.00000   0.00513
  96        2S          0.13440   0.00000   0.00000   0.00000  -0.00800
  97        2PX        -0.31853   0.00000   0.00000   0.00000   0.09433
  98        2PY         0.00000   0.00000  -0.30427   0.00000   0.00000
  99        2PZ         0.00000  -0.30427   0.00000   0.00000   0.00000
 100        3S          0.20294   0.00000   0.00000   0.00000  -0.01992
 101        3PX        -0.17923   0.00000   0.00000   0.00000   0.06054
 102        3PY         0.00000   0.00000  -0.22944   0.00000   0.00000
 103        3PZ         0.00000  -0.22944   0.00000   0.00000   0.00000
 104        4XX        -0.01739   0.00000   0.00000   0.00000   0.00447
 105        4YY         0.00247   0.00000   0.00000   0.00000  -0.00145
 106        4ZZ         0.00247   0.00000   0.00000   0.00000   0.00214
 107        4XY         0.00000   0.00000  -0.02121   0.00000   0.00000
 108        4XZ         0.00000  -0.02121   0.00000   0.00000   0.00000
 109        4YZ         0.00000   0.00000   0.00000   0.00581   0.00000
                          26        27        28        29        30
                        (EG)--O  (T1U)--O  (T1U)--O  (T1U)--O  (T2U)--O
     Eigenvalues --    -0.52113  -0.46870  -0.46870  -0.46870  -0.46452
   1 1   S  1S          0.00000   0.00000   0.00000   0.00000   0.00000
   2        2S          0.00000   0.00000   0.00000   0.00000   0.00000
   3        2PX         0.00000   0.02992   0.00000   0.00000   0.00000
   4        2PY         0.00000   0.00000   0.00000   0.02992   0.00000
   5        2PZ         0.00000   0.00000   0.02992   0.00000   0.00000
   6        3S          0.00000   0.00000   0.00000   0.00000   0.00000
   7        3PX         0.00000  -0.08261   0.00000   0.00000   0.00000
   8        3PY         0.00000   0.00000   0.00000  -0.08261   0.00000
   9        3PZ         0.00000   0.00000  -0.08261   0.00000   0.00000
  10        4S          0.00000   0.00000   0.00000   0.00000   0.00000
  11        4PX         0.00000   0.20217   0.00000   0.00000   0.00000
  12        4PY         0.00000   0.00000   0.00000   0.20217   0.00000
  13        4PZ         0.00000   0.00000   0.20217   0.00000   0.00000
  14        5XX        -0.16206   0.00000   0.00000   0.00000   0.00000
  15        5YY         0.04506   0.00000   0.00000   0.00000   0.00000
  16        5ZZ         0.11700   0.00000   0.00000   0.00000   0.00000
  17        5XY         0.00000   0.00000   0.00000   0.00000   0.00000
  18        5XZ         0.00000   0.00000   0.00000   0.00000   0.00000
  19        5YZ         0.00000   0.00000   0.00000   0.00000   0.00000
  20 2   F  1S          0.01444   0.00000   0.00750   0.00000   0.00000
  21        2S         -0.02253   0.00000   0.00544   0.00000   0.00000
  22        2PX         0.00000   0.30333   0.00000   0.00000   0.00000
  23        2PY         0.00000   0.00000   0.00000   0.30333   0.00000
  24        2PZ        -0.26570   0.00000   0.21328   0.00000   0.00000
  25        3S         -0.05610   0.00000  -0.11046   0.00000   0.00000
  26        3PX         0.00000   0.19208   0.00000   0.00000   0.00000
  27        3PY         0.00000   0.00000   0.00000   0.19208   0.00000
  28        3PZ        -0.17053   0.00000   0.16416   0.00000   0.00000
  29        4XX        -0.00035   0.00000   0.01563   0.00000  -0.00671
  30        4YY         0.00230   0.00000   0.01563   0.00000   0.00671
  31        4ZZ         0.01259   0.00000  -0.01163   0.00000   0.00000
  32        4XY         0.00000   0.00000   0.00000   0.00000   0.00000
  33        4XZ         0.00000  -0.01085   0.00000   0.00000   0.00000
  34        4YZ         0.00000   0.00000   0.00000  -0.01085   0.00000
  35 3   F  1S          0.00556   0.00000   0.00000   0.00750   0.00000
  36        2S         -0.00868   0.00000   0.00000   0.00544   0.00000
  37        2PX         0.00000   0.30333   0.00000   0.00000   0.00000
  38        2PY        -0.10231   0.00000   0.00000   0.21328   0.00000
  39        2PZ         0.00000   0.00000   0.30333   0.00000   0.34121
  40        3S         -0.02160   0.00000   0.00000  -0.11046   0.00000
  41        3PX         0.00000   0.19208   0.00000   0.00000   0.00000
  42        3PY        -0.06567   0.00000   0.00000   0.16416   0.00000
  43        3PZ         0.00000   0.00000   0.19208   0.00000   0.23869
  44        4XX        -0.00141   0.00000   0.00000   0.01563   0.00000
  45        4YY         0.00485   0.00000   0.00000  -0.01163   0.00000
  46        4ZZ         0.00216   0.00000   0.00000   0.01563   0.00000
  47        4XY         0.00000  -0.01085   0.00000   0.00000   0.00000
  48        4XZ         0.00000   0.00000   0.00000   0.00000   0.00000
  49        4YZ         0.00000   0.00000  -0.01085   0.00000  -0.01553
  50 4   F  1S          0.01444   0.00000  -0.00750   0.00000   0.00000
  51        2S         -0.02253   0.00000  -0.00544   0.00000   0.00000
  52        2PX         0.00000   0.30333   0.00000   0.00000   0.00000
  53        2PY         0.00000   0.00000   0.00000   0.30333   0.00000
  54        2PZ         0.26570   0.00000   0.21328   0.00000   0.00000
  55        3S         -0.05610   0.00000   0.11046   0.00000   0.00000
  56        3PX         0.00000   0.19208   0.00000   0.00000   0.00000
  57        3PY         0.00000   0.00000   0.00000   0.19208   0.00000
  58        3PZ         0.17053   0.00000   0.16416   0.00000   0.00000
  59        4XX        -0.00035   0.00000  -0.01563   0.00000   0.00671
  60        4YY         0.00230   0.00000  -0.01563   0.00000  -0.00671
  61        4ZZ         0.01259   0.00000   0.01163   0.00000   0.00000
  62        4XY         0.00000   0.00000   0.00000   0.00000   0.00000
  63        4XZ         0.00000   0.01085   0.00000   0.00000   0.00000
  64        4YZ         0.00000   0.00000   0.00000   0.01085   0.00000
  65 5   F  1S          0.00556   0.00000   0.00000  -0.00750   0.00000
  66        2S         -0.00868   0.00000   0.00000  -0.00544   0.00000
  67        2PX         0.00000   0.30333   0.00000   0.00000   0.00000
  68        2PY         0.10231   0.00000   0.00000   0.21328   0.00000
  69        2PZ         0.00000   0.00000   0.30333   0.00000   0.34121
  70        3S         -0.02160   0.00000   0.00000   0.11046   0.00000
  71        3PX         0.00000   0.19208   0.00000   0.00000   0.00000
  72        3PY         0.06567   0.00000   0.00000   0.16416   0.00000
  73        3PZ         0.00000   0.00000   0.19208   0.00000   0.23869
  74        4XX        -0.00141   0.00000   0.00000  -0.01563   0.00000
  75        4YY         0.00485   0.00000   0.00000   0.01163   0.00000
  76        4ZZ         0.00216   0.00000   0.00000  -0.01563   0.00000
  77        4XY         0.00000   0.01085   0.00000   0.00000   0.00000
  78        4XZ         0.00000   0.00000   0.00000   0.00000   0.00000
  79        4YZ         0.00000   0.00000   0.01085   0.00000   0.01553
  80 6   F  1S         -0.02000   0.00750   0.00000   0.00000   0.00000
  81        2S          0.03120   0.00544   0.00000   0.00000   0.00000
  82        2PX         0.36801   0.21328   0.00000   0.00000   0.00000
  83        2PY         0.00000   0.00000   0.00000   0.30333   0.00000
  84        2PZ         0.00000   0.00000   0.30333   0.00000  -0.34121
  85        3S          0.07771  -0.11046   0.00000   0.00000   0.00000
  86        3PX         0.23619   0.16416   0.00000   0.00000   0.00000
  87        3PY         0.00000   0.00000   0.00000   0.19208   0.00000
  88        3PZ         0.00000   0.00000   0.19208   0.00000  -0.23869
  89        4XX        -0.01744  -0.01163   0.00000   0.00000   0.00000
  90        4YY        -0.00182   0.01563   0.00000   0.00000   0.00000
  91        4ZZ        -0.00089   0.01563   0.00000   0.00000   0.00000
  92        4XY         0.00000   0.00000   0.00000  -0.01085   0.00000
  93        4XZ         0.00000   0.00000  -0.01085   0.00000   0.01553
  94        4YZ         0.00000   0.00000   0.00000   0.00000   0.00000
  95 7   F  1S         -0.02000  -0.00750   0.00000   0.00000   0.00000
  96        2S          0.03120  -0.00544   0.00000   0.00000   0.00000
  97        2PX        -0.36801   0.21328   0.00000   0.00000   0.00000
  98        2PY         0.00000   0.00000   0.00000   0.30333   0.00000
  99        2PZ         0.00000   0.00000   0.30333   0.00000  -0.34121
 100        3S          0.07771   0.11046   0.00000   0.00000   0.00000
 101        3PX        -0.23619   0.16416   0.00000   0.00000   0.00000
 102        3PY         0.00000   0.00000   0.00000   0.19208   0.00000
 103        3PZ         0.00000   0.00000   0.19208   0.00000  -0.23869
 104        4XX        -0.01744   0.01163   0.00000   0.00000   0.00000
 105        4YY        -0.00182  -0.01563   0.00000   0.00000   0.00000
 106        4ZZ        -0.00089  -0.01563   0.00000   0.00000   0.00000
 107        4XY         0.00000   0.00000   0.00000   0.01085   0.00000
 108        4XZ         0.00000   0.00000   0.01085   0.00000  -0.01553
 109        4YZ         0.00000   0.00000   0.00000   0.00000   0.00000
                          31        32        33        34        35
                       (T2U)--O  (T2U)--O  (T1G)--O  (T1G)--O  (T1G)--O
     Eigenvalues --    -0.46452  -0.46452  -0.42742  -0.42742  -0.42742
   1 1   S  1S          0.00000   0.00000   0.00000   0.00000   0.00000
   2        2S          0.00000   0.00000   0.00000   0.00000   0.00000
   3        2PX         0.00000   0.00000   0.00000   0.00000   0.00000
   4        2PY         0.00000   0.00000   0.00000   0.00000   0.00000
   5        2PZ         0.00000   0.00000   0.00000   0.00000   0.00000
   6        3S          0.00000   0.00000   0.00000   0.00000   0.00000
   7        3PX         0.00000   0.00000   0.00000   0.00000   0.00000
   8        3PY         0.00000   0.00000   0.00000   0.00000   0.00000
   9        3PZ         0.00000   0.00000   0.00000   0.00000   0.00000
  10        4S          0.00000   0.00000   0.00000   0.00000   0.00000
  11        4PX         0.00000   0.00000   0.00000   0.00000   0.00000
  12        4PY         0.00000   0.00000   0.00000   0.00000   0.00000
  13        4PZ         0.00000   0.00000   0.00000   0.00000   0.00000
  14        5XX         0.00000   0.00000   0.00000   0.00000   0.00000
  15        5YY         0.00000   0.00000   0.00000   0.00000   0.00000
  16        5ZZ         0.00000   0.00000   0.00000   0.00000   0.00000
  17        5XY         0.00000   0.00000   0.00000   0.00000   0.00000
  18        5XZ         0.00000   0.00000   0.00000   0.00000   0.00000
  19        5YZ         0.00000   0.00000   0.00000   0.00000   0.00000
  20 2   F  1S          0.00000   0.00000   0.00000   0.00000   0.00000
  21        2S          0.00000   0.00000   0.00000   0.00000   0.00000
  22        2PX         0.00000   0.34121   0.35751   0.00000   0.00000
  23        2PY         0.34121   0.00000   0.00000   0.35751   0.00000
  24        2PZ         0.00000   0.00000   0.00000   0.00000   0.00000
  25        3S          0.00000   0.00000   0.00000   0.00000   0.00000
  26        3PX         0.00000   0.23869   0.23765   0.00000   0.00000
  27        3PY         0.23869   0.00000   0.00000   0.23765   0.00000
  28        3PZ         0.00000   0.00000   0.00000   0.00000   0.00000
  29        4XX         0.00000   0.00000   0.00000   0.00000   0.00000
  30        4YY         0.00000   0.00000   0.00000   0.00000   0.00000
  31        4ZZ         0.00000   0.00000   0.00000   0.00000   0.00000
  32        4XY         0.00000   0.00000   0.00000   0.00000   0.00000
  33        4XZ         0.00000  -0.01553  -0.01126   0.00000   0.00000
  34        4YZ        -0.01553   0.00000   0.00000  -0.01126   0.00000
  35 3   F  1S          0.00000   0.00000   0.00000   0.00000   0.00000
  36        2S          0.00000   0.00000   0.00000   0.00000   0.00000
  37        2PX         0.00000  -0.34121   0.00000   0.00000   0.35751
  38        2PY         0.00000   0.00000   0.00000   0.00000   0.00000
  39        2PZ         0.00000   0.00000   0.00000  -0.35751   0.00000
  40        3S          0.00000   0.00000   0.00000   0.00000   0.00000
  41        3PX         0.00000  -0.23869   0.00000   0.00000   0.23765
  42        3PY         0.00000   0.00000   0.00000   0.00000   0.00000
  43        3PZ         0.00000   0.00000   0.00000  -0.23765   0.00000
  44        4XX        -0.00671   0.00000   0.00000   0.00000   0.00000
  45        4YY         0.00000   0.00000   0.00000   0.00000   0.00000
  46        4ZZ         0.00671   0.00000   0.00000   0.00000   0.00000
  47        4XY         0.00000   0.01553   0.00000   0.00000  -0.01126
  48        4XZ         0.00000   0.00000   0.00000   0.00000   0.00000
  49        4YZ         0.00000   0.00000   0.00000   0.01126   0.00000
  50 4   F  1S          0.00000   0.00000   0.00000   0.00000   0.00000
  51        2S          0.00000   0.00000   0.00000   0.00000   0.00000
  52        2PX         0.00000   0.34121  -0.35751   0.00000   0.00000
  53        2PY         0.34121   0.00000   0.00000  -0.35751   0.00000
  54        2PZ         0.00000   0.00000   0.00000   0.00000   0.00000
  55        3S          0.00000   0.00000   0.00000   0.00000   0.00000
  56        3PX         0.00000   0.23869  -0.23765   0.00000   0.00000
  57        3PY         0.23869   0.00000   0.00000  -0.23765   0.00000
  58        3PZ         0.00000   0.00000   0.00000   0.00000   0.00000
  59        4XX         0.00000   0.00000   0.00000   0.00000   0.00000
  60        4YY         0.00000   0.00000   0.00000   0.00000   0.00000
  61        4ZZ         0.00000   0.00000   0.00000   0.00000   0.00000
  62        4XY         0.00000   0.00000   0.00000   0.00000   0.00000
  63        4XZ         0.00000   0.01553  -0.01126   0.00000   0.00000
  64        4YZ         0.01553   0.00000   0.00000  -0.01126   0.00000
  65 5   F  1S          0.00000   0.00000   0.00000   0.00000   0.00000
  66        2S          0.00000   0.00000   0.00000   0.00000   0.00000
  67        2PX         0.00000  -0.34121   0.00000   0.00000  -0.35751
  68        2PY         0.00000   0.00000   0.00000   0.00000   0.00000
  69        2PZ         0.00000   0.00000   0.00000   0.35751   0.00000
  70        3S          0.00000   0.00000   0.00000   0.00000   0.00000
  71        3PX         0.00000  -0.23869   0.00000   0.00000  -0.23765
  72        3PY         0.00000   0.00000   0.00000   0.00000   0.00000
  73        3PZ         0.00000   0.00000   0.00000   0.23765   0.00000
  74        4XX         0.00671   0.00000   0.00000   0.00000   0.00000
  75        4YY         0.00000   0.00000   0.00000   0.00000   0.00000
  76        4ZZ        -0.00671   0.00000   0.00000   0.00000   0.00000
  77        4XY         0.00000  -0.01553   0.00000   0.00000  -0.01126
  78        4XZ         0.00000   0.00000   0.00000   0.00000   0.00000
  79        4YZ         0.00000   0.00000   0.00000   0.01126   0.00000
  80 6   F  1S          0.00000   0.00000   0.00000   0.00000   0.00000
  81        2S          0.00000   0.00000   0.00000   0.00000   0.00000
  82        2PX         0.00000   0.00000   0.00000   0.00000   0.00000
  83        2PY        -0.34121   0.00000   0.00000   0.00000  -0.35751
  84        2PZ         0.00000   0.00000  -0.35751   0.00000   0.00000
  85        3S          0.00000   0.00000   0.00000   0.00000   0.00000
  86        3PX         0.00000   0.00000   0.00000   0.00000   0.00000
  87        3PY        -0.23869   0.00000   0.00000   0.00000  -0.23765
  88        3PZ         0.00000   0.00000  -0.23765   0.00000   0.00000
  89        4XX         0.00000   0.00000   0.00000   0.00000   0.00000
  90        4YY         0.00000  -0.00671   0.00000   0.00000   0.00000
  91        4ZZ         0.00000   0.00671   0.00000   0.00000   0.00000
  92        4XY         0.01553   0.00000   0.00000   0.00000   0.01126
  93        4XZ         0.00000   0.00000   0.01126   0.00000   0.00000
  94        4YZ         0.00000   0.00000   0.00000   0.00000   0.00000
  95 7   F  1S          0.00000   0.00000   0.00000   0.00000   0.00000
  96        2S          0.00000   0.00000   0.00000   0.00000   0.00000
  97        2PX         0.00000   0.00000   0.00000   0.00000   0.00000
  98        2PY        -0.34121   0.00000   0.00000   0.00000   0.35751
  99        2PZ         0.00000   0.00000   0.35751   0.00000   0.00000
 100        3S          0.00000   0.00000   0.00000   0.00000   0.00000
 101        3PX         0.00000   0.00000   0.00000   0.00000   0.00000
 102        3PY        -0.23869   0.00000   0.00000   0.00000   0.23765
 103        3PZ         0.00000   0.00000   0.23765   0.00000   0.00000
 104        4XX         0.00000   0.00000   0.00000   0.00000   0.00000
 105        4YY         0.00000   0.00671   0.00000   0.00000   0.00000
 106        4ZZ         0.00000  -0.00671   0.00000   0.00000   0.00000
 107        4XY        -0.01553   0.00000   0.00000   0.00000   0.01126
 108        4XZ         0.00000   0.00000   0.01126   0.00000   0.00000
 109        4YZ         0.00000   0.00000   0.00000   0.00000   0.00000
                          36        37        38        39        40
                       (A1G)--V  (T1U)--V  (T1U)--V  (T1U)--V  (A1G)--V
     Eigenvalues --    -0.08897   0.09392   0.09392   0.09392   0.27839
   1 1   S  1S          0.07355   0.00000   0.00000   0.00000  -0.04052
   2        2S         -0.30018   0.00000   0.00000   0.00000  -0.12979
   3        2PX         0.00000   0.00000   0.00000  -0.31599   0.00000
   4        2PY         0.00000  -0.31599   0.00000   0.00000   0.00000
   5        2PZ         0.00000   0.00000  -0.31599   0.00000   0.00000
   6        3S          1.02706   0.00000   0.00000   0.00000  -1.59654
   7        3PX         0.00000   0.00000   0.00000   1.08623   0.00000
   8        3PY         0.00000   1.08623   0.00000   0.00000   0.00000
   9        3PZ         0.00000   0.00000   1.08623   0.00000   0.00000
  10        4S          0.43996   0.00000   0.00000   0.00000   3.71590
  11        4PX         0.00000   0.00000   0.00000   0.47213   0.00000
  12        4PY         0.00000   0.47213   0.00000   0.00000   0.00000
  13        4PZ         0.00000   0.00000   0.47213   0.00000   0.00000
  14        5XX        -0.02976   0.00000   0.00000   0.00000   0.02480
  15        5YY        -0.02976   0.00000   0.00000   0.00000   0.02480
  16        5ZZ        -0.02976   0.00000   0.00000   0.00000   0.02480
  17        5XY         0.00000   0.00000   0.00000   0.00000   0.00000
  18        5XZ         0.00000   0.00000   0.00000   0.00000   0.00000
  19        5YZ         0.00000   0.00000   0.00000   0.00000   0.00000
  20 2   F  1S          0.02921   0.00000   0.05807   0.00000   0.05477
  21        2S         -0.06536   0.00000  -0.14159   0.00000  -0.01985
  22        2PX         0.00000   0.00000   0.00000  -0.12590   0.00000
  23        2PY         0.00000  -0.12590   0.00000   0.00000   0.00000
  24        2PZ         0.26014   0.00000   0.32586   0.00000  -0.04925
  25        3S         -0.17745   0.00000  -0.39659   0.00000  -0.77794
  26        3PX         0.00000   0.00000   0.00000  -0.11430   0.00000
  27        3PY         0.00000  -0.11430   0.00000   0.00000   0.00000
  28        3PZ         0.23068   0.00000   0.35077   0.00000   0.26176
  29        4XX         0.00043   0.00000  -0.00108   0.00000   0.05869
  30        4YY         0.00043   0.00000  -0.00108   0.00000   0.05869
  31        4ZZ         0.00442   0.00000   0.00110   0.00000  -0.01071
  32        4XY         0.00000   0.00000   0.00000   0.00000   0.00000
  33        4XZ         0.00000   0.00000   0.00000  -0.01709   0.00000
  34        4YZ         0.00000  -0.01709   0.00000   0.00000   0.00000
  35 3   F  1S          0.02921   0.05807   0.00000   0.00000   0.05477
  36        2S         -0.06536  -0.14159   0.00000   0.00000  -0.01985
  37        2PX         0.00000   0.00000   0.00000  -0.12590   0.00000
  38        2PY         0.26014   0.32586   0.00000   0.00000  -0.04925
  39        2PZ         0.00000   0.00000  -0.12590   0.00000   0.00000
  40        3S         -0.17745  -0.39659   0.00000   0.00000  -0.77794
  41        3PX         0.00000   0.00000   0.00000  -0.11430   0.00000
  42        3PY         0.23068   0.35077   0.00000   0.00000   0.26176
  43        3PZ         0.00000   0.00000  -0.11430   0.00000   0.00000
  44        4XX         0.00043  -0.00108   0.00000   0.00000   0.05869
  45        4YY         0.00442   0.00110   0.00000   0.00000  -0.01071
  46        4ZZ         0.00043  -0.00108   0.00000   0.00000   0.05869
  47        4XY         0.00000   0.00000   0.00000  -0.01709   0.00000
  48        4XZ         0.00000   0.00000   0.00000   0.00000   0.00000
  49        4YZ         0.00000   0.00000  -0.01709   0.00000   0.00000
  50 4   F  1S          0.02921   0.00000  -0.05807   0.00000   0.05477
  51        2S         -0.06536   0.00000   0.14159   0.00000  -0.01985
  52        2PX         0.00000   0.00000   0.00000  -0.12590   0.00000
  53        2PY         0.00000  -0.12590   0.00000   0.00000   0.00000
  54        2PZ        -0.26014   0.00000   0.32586   0.00000   0.04925
  55        3S         -0.17745   0.00000   0.39659   0.00000  -0.77794
  56        3PX         0.00000   0.00000   0.00000  -0.11430   0.00000
  57        3PY         0.00000  -0.11430   0.00000   0.00000   0.00000
  58        3PZ        -0.23068   0.00000   0.35077   0.00000  -0.26176
  59        4XX         0.00043   0.00000   0.00108   0.00000   0.05869
  60        4YY         0.00043   0.00000   0.00108   0.00000   0.05869
  61        4ZZ         0.00442   0.00000  -0.00110   0.00000  -0.01071
  62        4XY         0.00000   0.00000   0.00000   0.00000   0.00000
  63        4XZ         0.00000   0.00000   0.00000   0.01709   0.00000
  64        4YZ         0.00000   0.01709   0.00000   0.00000   0.00000
[...]
  92        4XY         0.00000   0.00002   0.00000   0.00000   0.00000
  93        4XZ         0.00000   0.00000   0.00000   0.00000   0.00000
  94        4YZ         0.00000   0.00000   0.00000   0.00000   0.00000
  95 7   F  1S          0.00000   0.00000   0.00000   0.00000   0.00000
  96        2S          0.00000   0.00000   0.00000   0.00000   0.00000
  97        2PX         0.00000   0.00000   0.00000   0.00000   0.00000
  98        2PY         0.00000   0.00001   0.00000   0.00000   0.00000
  99        2PZ         0.00000   0.00000   0.00000   0.00000   0.00000
 100        3S          0.00001  -0.00015   0.00000   0.00000   0.00000
 101        3PX        -0.00004  -0.00004   0.00000   0.00000   0.00000
 102        3PY         0.00005   0.00023   0.00000   0.00000   0.00000
 103        3PZ         0.00000   0.00000   0.00004  -0.00003   0.00000
 104        4XX         0.00000   0.00000   0.00000   0.00000   0.00000
 105        4YY         0.00000   0.00001   0.00000   0.00000   0.00000
 106        4ZZ         0.00000   0.00000   0.00000   0.00000   0.00000
 107        4XY         0.00000   0.00002   0.00000   0.00000   0.00000
 108        4XZ         0.00000   0.00000   0.00000   0.00000   0.00000
 109        4YZ         0.00000   0.00000   0.00000   0.00000   0.00000
                          81        82        83        84        85
  81        2S          0.57388
  82        2PX         0.00000   0.63804
  83        2PY         0.00000   0.00000   0.88199
  84        2PZ         0.00000   0.00000   0.00000   0.88199
  85        3S          0.43081   0.00000   0.00000   0.00000   0.59925
  86        3PX         0.00000   0.20021   0.00000   0.00000   0.00000
  87        3PY         0.00000   0.00000   0.30179   0.00000   0.00000
  88        3PZ         0.00000   0.00000   0.00000   0.30179   0.00000
  89        4XX         0.01145   0.00000   0.00000   0.00000   0.01517
  90        4YY         0.00409   0.00000   0.00000   0.00000   0.00379
  91        4ZZ         0.00409   0.00000   0.00000   0.00000   0.00379
  92        4XY         0.00000   0.00000   0.00000   0.00000   0.00000
  93        4XZ         0.00000   0.00000   0.00000   0.00000   0.00000
  94        4YZ         0.00000   0.00000   0.00000   0.00000   0.00000
  95 7   F  1S          0.00000   0.00000   0.00000   0.00000   0.00000
  96        2S          0.00000   0.00000   0.00000   0.00000   0.00000
  97        2PX         0.00000   0.00000   0.00000   0.00000   0.00000
  98        2PY         0.00000   0.00000   0.00000   0.00000   0.00000
  99        2PZ         0.00000   0.00000   0.00000   0.00000   0.00000
 100        3S          0.00000   0.00000   0.00000   0.00000  -0.00005
 101        3PX         0.00000   0.00001   0.00000   0.00000  -0.00014
 102        3PY         0.00000   0.00000   0.00000   0.00000   0.00000
 103        3PZ         0.00000   0.00000   0.00000   0.00000   0.00000
 104        4XX         0.00000   0.00000   0.00000   0.00000   0.00000
 105        4YY         0.00000   0.00000   0.00000   0.00000   0.00000
 106        4ZZ         0.00000   0.00000   0.00000   0.00000   0.00000
 107        4XY         0.00000   0.00000   0.00000   0.00000   0.00000
 108        4XZ         0.00000   0.00000   0.00000   0.00000   0.00000
 109        4YZ         0.00000   0.00000   0.00000   0.00000   0.00000
                          86        87        88        89        90
  86        3PX         0.25487
  87        3PY         0.00000   0.41550
  88        3PZ         0.00000   0.00000   0.41550
  89        4XX         0.00000   0.00000   0.00000   0.00420
  90        4YY         0.00000   0.00000   0.00000   0.00006   0.00092
  91        4ZZ         0.00000   0.00000   0.00000   0.00006   0.00024
  92        4XY         0.00000   0.00000   0.00000   0.00000   0.00000
  93        4XZ         0.00000   0.00000   0.00000   0.00000   0.00000
  94        4YZ         0.00000   0.00000   0.00000   0.00000   0.00000
  95 7   F  1S          0.00000   0.00000   0.00000   0.00000   0.00000
  96        2S          0.00000   0.00000   0.00000   0.00000   0.00000
  97        2PX         0.00001   0.00000   0.00000   0.00000   0.00000
  98        2PY         0.00000   0.00000   0.00000   0.00000   0.00000
  99        2PZ         0.00000   0.00000   0.00000   0.00000   0.00000
 100        3S         -0.00014   0.00000   0.00000   0.00000   0.00000
 101        3PX         0.00021   0.00000   0.00000   0.00000   0.00000
 102        3PY         0.00000  -0.00003   0.00000   0.00000   0.00000
 103        3PZ         0.00000   0.00000  -0.00003   0.00000   0.00000
 104        4XX         0.00000   0.00000   0.00000   0.00000   0.00000
 105        4YY         0.00000   0.00000   0.00000   0.00000   0.00000
 106        4ZZ         0.00000   0.00000   0.00000   0.00000   0.00000
 107        4XY         0.00000   0.00000   0.00000   0.00000   0.00000
 108        4XZ         0.00000   0.00000   0.00000   0.00000   0.00000
 109        4YZ         0.00000   0.00000   0.00000   0.00000   0.00000
                          91        92        93        94        95
  91        4ZZ         0.00092
  92        4XY         0.00000   0.00199
  93        4XZ         0.00000   0.00000   0.00199
  94        4YZ         0.00000   0.00000   0.00000   0.00007
  95 7   F  1S          0.00000   0.00000   0.00000   0.00000   2.08506
  96        2S          0.00000   0.00000   0.00000   0.00000  -0.05298
  97        2PX         0.00000   0.00000   0.00000   0.00000   0.00000
  98        2PY         0.00000   0.00000   0.00000   0.00000   0.00000
  99        2PZ         0.00000   0.00000   0.00000   0.00000   0.00000
 100        3S          0.00000   0.00000   0.00000   0.00000  -0.03759
 101        3PX         0.00000   0.00000   0.00000   0.00000   0.00000
 102        3PY         0.00000   0.00000   0.00000   0.00000   0.00000
 103        3PZ         0.00000   0.00000   0.00000   0.00000   0.00000
 104        4XX         0.00000   0.00000   0.00000   0.00000  -0.00067
 105        4YY         0.00000   0.00000   0.00000   0.00000  -0.00048
 106        4ZZ         0.00000   0.00000   0.00000   0.00000  -0.00048
 107        4XY         0.00000   0.00000   0.00000   0.00000   0.00000
 108        4XZ         0.00000   0.00000   0.00000   0.00000   0.00000
 109        4YZ         0.00000   0.00000   0.00000   0.00000   0.00000
                          96        97        98        99       100
  96        2S          0.57388
  97        2PX         0.00000   0.63804
  98        2PY         0.00000   0.00000   0.88199
  99        2PZ         0.00000   0.00000   0.00000   0.88199
 100        3S          0.43081   0.00000   0.00000   0.00000   0.59925
 101        3PX         0.00000   0.20021   0.00000   0.00000   0.00000
 102        3PY         0.00000   0.00000   0.30179   0.00000   0.00000
 103        3PZ         0.00000   0.00000   0.00000   0.30179   0.00000
 104        4XX         0.01145   0.00000   0.00000   0.00000   0.01517
 105        4YY         0.00409   0.00000   0.00000   0.00000   0.00379
 106        4ZZ         0.00409   0.00000   0.00000   0.00000   0.00379
 107        4XY         0.00000   0.00000   0.00000   0.00000   0.00000
 108        4XZ         0.00000   0.00000   0.00000   0.00000   0.00000
 109        4YZ         0.00000   0.00000   0.00000   0.00000   0.00000
                         101       102       103       104       105
 101        3PX         0.25487
 102        3PY         0.00000   0.41550
 103        3PZ         0.00000   0.00000   0.41550
 104        4XX         0.00000   0.00000   0.00000   0.00420
 105        4YY         0.00000   0.00000   0.00000   0.00006   0.00092
 106        4ZZ         0.00000   0.00000   0.00000   0.00006   0.00024
 107        4XY         0.00000   0.00000   0.00000   0.00000   0.00000
 108        4XZ         0.00000   0.00000   0.00000   0.00000   0.00000
 109        4YZ         0.00000   0.00000   0.00000   0.00000   0.00000
                         106       107       108       109
 106        4ZZ         0.00092
 107        4XY         0.00000   0.00199
 108        4XZ         0.00000   0.00000   0.00199
 109        4YZ         0.00000   0.00000   0.00000   0.00007
     Gross orbital populations:
                           1
   1 1   S  1S          1.99861
   2        2S          1.98724
   3        2PX         1.98823
   4        2PY         1.98823
   5        2PZ         1.98823
   6        3S          1.30741
   7        3PX         0.73736
   8        3PY         0.73736
   9        3PZ         0.73736
  10        4S         -0.03128
  11        4PX         0.10434
  12        4PY         0.10434
  13        4PZ         0.10434
  14        5XX         0.12513
  15        5YY         0.12513
  16        5ZZ         0.12513
  17        5XY         0.07926
  18        5XZ         0.07926
  19        5YZ         0.07926
  20 2   F  1S          1.99305
  21        2S          0.96888
  22        2PX         1.19306
  23        2PY         1.19306
  24        2PZ         0.90737
  25        3S          0.93065
  26        3PX         0.73637
  27        3PY         0.73637
  28        3PZ         0.53758
  29        4XX         0.01156
  30        4YY         0.01156
  31        4ZZ         0.04449
  32        4XY         0.00028
  33        4XZ         0.00413
  34        4YZ         0.00413
  35 3   F  1S          1.99305
  36        2S          0.96888
  37        2PX         1.19306
  38        2PY         0.90737
  39        2PZ         1.19306
  40        3S          0.93065
  41        3PX         0.73637
  42        3PY         0.53758
  43        3PZ         0.73637
  44        4XX         0.01156
  45        4YY         0.04449
  46        4ZZ         0.01156
  47        4XY         0.00413
  48        4XZ         0.00028
  49        4YZ         0.00413
  50 4   F  1S          1.99305
  51        2S          0.96888
  52        2PX         1.19306
  53        2PY         1.19306
  54        2PZ         0.90737
  55        3S          0.93065
  56        3PX         0.73637
  57        3PY         0.73637
  58        3PZ         0.53758
  59        4XX         0.01156
  60        4YY         0.01156
  61        4ZZ         0.04449
  62        4XY         0.00028
  63        4XZ         0.00413
  64        4YZ         0.00413
  65 5   F  1S          1.99305
  66        2S          0.96888
  67        2PX         1.19306
  68        2PY         0.90737
  69        2PZ         1.19306
  70        3S          0.93065
  71        3PX         0.73637
  72        3PY         0.53758
  73        3PZ         0.73637
  74        4XX         0.01156
  75        4YY         0.04449
  76        4ZZ         0.01156
  77        4XY         0.00413
  78        4XZ         0.00028
  79        4YZ         0.00413
  80 6   F  1S          1.99305
  81        2S          0.96888
  82        2PX         0.90737
  83        2PY         1.19306
  84        2PZ         1.19306
  85        3S          0.93065
  86        3PX         0.53758
  87        3PY         0.73637
  88        3PZ         0.73637
  89        4XX         0.04449
  90        4YY         0.01156
  91        4ZZ         0.01156
  92        4XY         0.00413
  93        4XZ         0.00413
  94        4YZ         0.00028
  95 7   F  1S          1.99305
  96        2S          0.96888
  97        2PX         0.90737
  98        2PY         1.19306
  99        2PZ         1.19306
 100        3S          0.93065
 101        3PX         0.53758
 102        3PY         0.73637
 103        3PZ         0.73637
 104        4XX         0.04449
 105        4YY         0.01156
 106        4ZZ         0.01156
 107        4XY         0.00413
 108        4XZ         0.00413
 109        4YZ         0.00028
          Condensed to atoms (all electrons):
 Mulliken charges:
               1
     1  S    1.635054
     2  F   -0.272509
     3  F   -0.272509
     4  F   -0.272509
     5  F   -0.272509
     6  F   -0.272509
     7  F   -0.272509
 Sum of Mulliken charges =   0.00000
 Mulliken charges with hydrogens summed into heavy atoms:
               1
     1  S    1.635054
     2  F   -0.272509
     3  F   -0.272509
     4  F   -0.272509
     5  F   -0.272509
     6  F   -0.272509
     7  F   -0.272509
 Electronic spatial extent (au):  <R**2>=            587.4184
 Charge=              0.0000 electrons
 Dipole moment (field-independent basis, Debye):
    X=              0.0000    Y=              0.0000    Z=              0.0000  Tot=              0.0000
 Orbital energies and kinetic energies (alpha):
                                 1                 2
   1         (A1G)--O        -89.345166        120.984228
   2         (A1G)--O        -24.767666         37.075582
   3         (EG)--O         -24.767662         37.083727
   4         (EG)--O         -24.767662         37.083727
   5         (T1U)--O        -24.767662         37.077674
   6         (T1U)--O        -24.767662         37.077674
   7         (T1U)--O        -24.767662         37.077674
   8         (A1G)--O         -8.338096         18.555212
   9         (T1U)--O         -6.305039         17.531567
  10         (T1U)--O         -6.305039         17.531567
  11         (T1U)--O         -6.305039         17.531567
  12         (A1G)--O         -1.389886          3.090832
  13         (T1U)--O         -1.274601          3.686593
  14         (T1U)--O         -1.274601          3.686593
  15         (T1U)--O         -1.274601          3.686593
  16         (EG)--O          -1.228513          4.040536
  17         (EG)--O          -1.228513          4.040536
  18         (A1G)--O         -0.821452          3.792636
  19         (T1U)--O         -0.661920          3.086757
  20         (T1U)--O         -0.661920          3.086757
  21         (T1U)--O         -0.661920          3.086757
  22         (T2G)--O         -0.547881          2.753766
  23         (T2G)--O         -0.547881          2.753766
  24         (T2G)--O         -0.547881          2.753766
  25         (EG)--O          -0.521128          3.305062
  26         (EG)--O          -0.521128          3.305062
  27         (T1U)--O         -0.468697          3.305577
  28         (T1U)--O         -0.468697          3.305577
  29         (T1U)--O         -0.468697          3.305577
  30         (T2U)--O         -0.464516          3.348793
  31         (T2U)--O         -0.464516          3.348793
  32         (T2U)--O         -0.464516          3.348793
  33         (T1G)--O         -0.427422          3.631339
  34         (T1G)--O         -0.427422          3.631339
  35         (T1G)--O         -0.427422          3.631339
  36         (A1G)--V         -0.088968          5.322801
  37         (T1U)--V          0.093917          4.830821
  38         (T1U)--V          0.093917          4.830821
  39         (T1U)--V          0.093917          4.830821
  40         (A1G)--V          0.278392          1.704971
  41         (T1U)--V          0.326244          1.946304
  42         (T1U)--V          0.326244          1.946304
  43         (T1U)--V          0.326244          1.946304
  44         (T2G)--V          0.482252          2.980448
  45         (T2G)--V          0.482252          2.980448
  46         (T2G)--V          0.482252          2.980448
  47         (EG)--V           0.873380          3.213883
  48         (EG)--V           0.873380          3.213883
  49         (EG)--V           1.055908          3.742349
  50         (EG)--V           1.055908          3.742349
  51         (T2G)--V          1.056542          4.072509
  52         (T2G)--V          1.056542          4.072509
  53         (T2G)--V          1.056542          4.072509
  54         (T1U)--V          1.107601          4.139379
  55         (T1U)--V          1.107601          4.139379
  56         (T1U)--V          1.107601          4.139379
  57         (A1G)--V          1.121725          4.176734
  58         (T2U)--V          1.150444          4.430749
  59         (T2U)--V          1.150444          4.430749
  60         (T2U)--V          1.150444          4.430749
  61         (T1G)--V          1.367385          4.336537
  62         (T1G)--V          1.367385          4.336537
  63         (T1G)--V          1.367385          4.336537
  64         (EG)--V           1.381563          3.154138
  65         (EG)--V           1.381563          3.154138
  66         (T1U)--V          1.474353          3.827750
  67         (T1U)--V          1.474353          3.827750
  68         (T1U)--V          1.474353          3.827750
  69         (T2U)--V          1.642895          2.756029
  70         (T2U)--V          1.642895          2.756029
  71         (T2U)--V          1.642895          2.756029
  72         (A2U)--V          1.678786          2.703633
  73         (T2G)--V          1.783447          2.834614
  74         (T2G)--V          1.783447          2.834614
  75         (T2G)--V          1.783447          2.834614
  76         (EU)--V           1.813187          2.849610
  77         (EU)--V           1.813187          2.849610
  78         (EG)--V           1.899397          3.563396
  79         (EG)--V           1.899397          3.563396
  80         (A2G)--V          1.916281          2.965125
  81         (T2U)--V          1.958546          3.241788
  82         (T2U)--V          1.958546          3.241788
  83         (T2U)--V          1.958546          3.241788
  84         (T1U)--V          1.964860          3.829769
  85         (T1U)--V          1.964860          3.829769
  86         (T1U)--V          1.964860          3.829769
  87         (T1G)--V          2.012987          3.618537
  88         (T1G)--V          2.012987          3.618537
  89         (T1G)--V          2.012987          3.618537
  90         (T2G)--V          2.042823          3.408231
  91         (T2G)--V          2.042823          3.408231
  92         (T2G)--V          2.042823          3.408231
  93         (T1U)--V          2.051383          4.070142
  94         (T1U)--V          2.051383          4.070142
  95         (T1U)--V          2.051383          4.070142
  96         (A1G)--V          2.300659          4.825926
  97         (A1G)--V          2.469573          6.361774
  98         (T1U)--V          2.494203          6.024034
  99         (T1U)--V          2.494203          6.024034
 100         (T1U)--V          2.494203          6.024034
 101         (EG)--V           3.008579          5.743049
 102         (EG)--V           3.008579          5.743049
 103         (EG)--V           3.936277         10.808269
 104         (EG)--V           3.936277         10.808269
 105         (A1G)--V          4.267585         11.601317
 106         (T1U)--V          4.865138         13.861310
 107         (T1U)--V          4.865138         13.861310
 108         (T1U)--V          4.865138         13.861310
 109         (A1G)--V          6.025449         16.868140
 Total kinetic energy from orbitals= 9.912466784945D+02
 1\1\GINC-NODE5\SP\RB3LYP\6-31G(d)\F6S1\ROOT\04-Oct-2016\0\\#T B3LYP 6-
 31G* gfprint pop(full) Density\\\0,1\S,0,0.,0.,0.\F,0,1.600359,0.,0.\F
 ,0,0.,-1.600359,0.\F,0,-1.600359,0.,0.\F,0,0.,1.600359,0.\F,0,0.,0.,1.
 600359\F,0,0.,0.,-1.600359\\Version=ES64L-G09RevD.01\State=1-A1G\HF=-9
 97.1067436\RMSD=1.874e-09\Dipole=0.,0.,0.\Quadrupole=0.,0.,0.,0.,0.,0.
 \PG=OH [O(S1),3C4(F1.F1)]\\@


 GOD GAVE US TWO ENDS... ONE TO SIT ON...    
 AND THE OTHER TO THINK WITH...              
 YOUR SUCCESS DEPENDS UPON WHICH END YOU     
 USE THE MOST...                             
                                             
 IT'S A CASE OF HEADS YOU WIN TAILS YOU LOSE.
          SOURCE UNKNOWN(IT'S JUST AS WELL.) 
 Job cpu time:       0 days  0 hours  0 minutes 26.1 seconds.
 File lengths (MBytes):  RWF=      7 Int=      0 D2E=      0 Chk=      1 Scr=      1
 Normal termination of Gaussian 09 at Tue Oct  4 14:11:04 2016.
