 Entering Gaussian System

 Standard orientation:



 -------------------------------------------------------
     1  16    0     0.000000     0.000000     0.000000
     2   9    0     0.000000     0.000000     1.600359
     3   9    0     0.000000     1.600359     0.000000
     4   9    0     0.000000     0.000000    -1.600359
     5   9    0     0.000000    -1.600359     0.000000
     6   9    0     1.600359     0.000000     0.000000
     7   9    0    -1.600359     0.000000     0.000000
 -------------------------------------------------------

 AO basis set (Overlap normalization):
 Atom  S1     Shell     1 S    6
   2.1917100000e+04   1.8692408490e-03
   3.3014900000e+03   1.4230306460e-02
   7.5414600000e+02   6.9696231660e-02
   2.1271100000e+02   2.3848710830e-01
   6.7989600000e+01   4.8330721950e-01
   2.3051500000e+01   3.3807415360e-01
 Atom  S1     Shell     2 SP   6
   4.2373500000e+02  -2.3767704990e-03   4.0610099820e-03
   1.0071000000e+02  -3.1693006650e-02   3.0681299860e-02
   3.2159900000e+01  -1.1331702380e-01   1.3045199940e-01
   1.1807900000e+01   5.6090011770e-02   3.2720499850e-01
   4.6311000000e+00   5.9225512430e-01   4.5285099800e-01
   1.8702500000e+00   4.5500609550e-01   2.5604199890e-01
 Atom  S1     Shell     3 SP   3
   2.6158400000e+00  -2.5037311420e-01  -1.4510489550e-02
   9.2216700000e-01   6.6956763100e-02   3.1026277650e-01
   3.4128700000e-01   1.0545062690e+00   7.5448245650e-01
 Atom  S1     Shell     4 SP   1
   1.1716700000e-01   1.0000000000e+00   1.0000000000e+00
 Atom  S1     Shell     5 D    1
   6.5000000000e-01   1.0000000000e+00
 Atom  F2     Shell     6 S    6
   7.0017130900e+03   1.8196169010e-03
   1.0513660900e+03   1.3916079610e-02
   2.3928569000e+02   6.8405324530e-02
   6.7397445300e+01   2.3318576010e-01
   2.1519957300e+01   4.7126743920e-01
   7.4031013000e+00   3.5661854620e-01
 Atom  F2     Shell     7 SP   3
   2.0847952800e+01  -1.0850697510e-01   7.1628724240e-02
   4.8083083400e+00  -1.4645165810e-01   3.4591210270e-01
   1.3440698600e+00   1.1286885810e+00   7.2246995640e-01
 Atom  F2     Shell     8 SP   1
   3.5815139300e-01   1.0000000000e+00   1.0000000000e+00
 Atom  F2     Shell     9 D    1
   8.0000000000e-01   1.0000000000e+00
 Atom  F3     Shell    10 S    6
   7.0017130900e+03   1.8196169010e-03
   1.0513660900e+03   1.3916079610e-02
   2.3928569000e+02   6.8405324530e-02
   6.7397445300e+01   2.3318576010e-01
   2.1519957300e+01   4.7126743920e-01
   7.4031013000e+00   3.5661854620e-01
 Atom  F3     Shell    11 SP   3
   2.0847952800e+01  -1.0850697510e-01   7.1628724240e-02
   4.8083083400e+00  -1.4645165810e-01   3.4591210270e-01
   1.3440698600e+00   1.1286885810e+00   7.2246995640e-01
 Atom  F3     Shell    12 SP   1
   3.5815139300e-01   1.0000000000e+00   1.0000000000e+00
 Atom  F3     Shell    13 D    1
   8.0000000000e-01   1.0000000000e+00
 Atom  F4     Shell    14 S    6
   7.0017130900e+03   1.8196169010e-03
   1.0513660900e+03   1.3916079610e-02
   2.3928569000e+02   6.8405324530e-02
   6.7397445300e+01   2.3318576010e-01
   2.1519957300e+01   4.7126743920e-01
   7.4031013000e+00   3.5661854620e-01
 Atom  F4     Shell    15 SP   3
   2.0847952800e+01  -1.0850697510e-01   7.1628724240e-02
   4.8083083400e+00  -1.4645165810e-01   3.4591210270e-01
   1.3440698600e+00   1.1286885810e+00   7.2246995640e-01
 Atom  F4     Shell    16 SP   1
   3.5815139300e-01   1.0000000000e+00   1.0000000000e+00
 Atom  F4     Shell    17 D    1
   8.0000000000e-01   1.0000000000e+00
 Atom  F5     Shell    18 S    6
   7.0017130900e+03   1.8196169010e-03
   1.0513660900e+03   1.3916079610e-02
   2.3928569000e+02   6.8405324530e-02
   6.7397445300e+01   2.3318576010e-01
   2.1519957300e+01   4.7126743920e-01
   7.4031013000e+00   3.5661854620e-01
 Atom  F5     Shell    19 SP   3
   2.0847952800e+01  -1.0850697510e-01   7.1628724240e-02
   4.8083083400e+00  -1.4645165810e-01   3.4591210270e-01
   1.3440698600e+00   1.1286885810e+00   7.2246995640e-01
 Atom  F5     Shell    20 SP   1
   3.5815139300e-01   1.0000000000e+00   1.0000000000e+00
 Atom  F5     Shell    21 D    1
   8.0000000000e-01   1.0000000000e+00
 Atom  F6     Shell    22 S    6
   7.0017130900e+03   1.8196169010e-03
   1.0513660900e+03   1.3916079610e-02
   2.3928569000e+02   6.8405324530e-02
   6.7397445300e+01   2.3318576010e-01
   2.1519957300e+01   4.7126743920e-01
   7.4031013000e+00   3.5661854620e-01
 Atom  F6     Shell    23 SP   3
   2.0847952800e+01  -1.0850697510e-01   7.1628724240e-02
   4.8083083400e+00  -1.4645165810e-01   3.4591210270e-01
   1.3440698600e+00   1.1286885810e+00   7.2246995640e-01
 Atom  F6     Shell    24 SP   1
   3.5815139300e-01   1.0000000000e+00   1.0000000000e+00
 Atom  F6     Shell    25 D    1
   8.0000000000e-01   1.0000000000e+00
 Atom  F7     Shell    26 S    6
   7.0017130900e+03   1.8196169010e-03
   1.0513660900e+03   1.3916079610e-02
   2.3928569000e+02   6.8405324530e-02
   6.7397445300e+01   2.3318576010e-01
   2.1519957300e+01   4.7126743920e-01
   7.4031013000e+00   3.5661854620e-01
 Atom  F7     Shell    27 SP   3
   2.0847952800e+01  -1.0850697510e-01   7.1628724240e-02
   4.8083083400e+00  -1.4645165810e-01   3.4591210270e-01
   1.3440698600e+00   1.1286885810e+00   7.2246995640e-01
 Atom  F7     Shell    28 SP   1
   3.5815139300e-01   1.0000000000e+00   1.0000000000e+00
 Atom  F7     Shell    29 D    1
   8.0000000000e-01   1.0000000000e+00

 Molecular Orbital Coefficients:
                           1         2         3         4         5
                           O         O         O         O         O    
     Eigenvalues --  -2373.2927-668.28314-668.28314-668.28314-668.28314
    1 S1      .S        1.02872  -0.00002  -0.00002  -0.00002  -0.00002
    2 S1      .S       -0.15271   0.00044   0.00044   0.00044   0.00044
    3 S1      .X       -0.00000  -0.00000  -0.00191   0.00191   0.00000
    4 S1      .Y        0.00000   0.00000  -0.00000   0.00000   0.00000
    5 S1      .Z        0.00000   0.00191   0.00000  -0.00000  -0.00191
    6 S1      .S       -0.02998   0.00231   0.00231   0.00231   0.00231
    7 S1      .X        0.00000   0.00000   0.00362  -0.00362   0.00000
    8 S1      .Y        0.00000  -0.00000   0.00000   0.00000   0.00000
    9 S1      .Z       -0.00000  -0.00362  -0.00000  -0.00000   0.00362
   10 S1      .S        0.00205  -0.00297  -0.00297  -0.00297  -0.00297
   11 S1      .X        0.00000   0.00000   0.00557  -0.00557  -0.00000
   12 S1      .Y       -0.00000  -0.00000   0.00000   0.00000   0.00000
   13 S1      .Z       -0.00000  -0.00557  -0.00000  -0.00000   0.00557
   14 S1      .XX       0.01048  -0.00034  -0.00072  -0.00072  -0.00034
   15 S1      .YY       0.01048  -0.00034  -0.00034  -0.00034  -0.00034
   16 S1      .ZZ       0.01048  -0.00072  -0.00034  -0.00034  -0.00072
   17 S1      .XY       0.00000  -0.00000   0.00000  -0.00000   0.00000
   18 S1      .XZ       0.00000   0.00000   0.00000  -0.00000  -0.00000
   19 S1      .YZ      -0.00000   0.00000  -0.00000   0.00000  -0.00000
   20 F2      .S       -0.00019   1.01048  -0.00019  -0.00019   0.00033
   21 F2      .S       -0.00003  -0.03168  -0.00011  -0.00011  -0.00066
   22 F2      .X       -0.00000  -0.00000  -0.00104   0.00104   0.00000
   23 F2      .Y       -0.00000  -0.00000  -0.00000   0.00000   0.00000
   24 F2      .Z       -0.00078  -0.00089  -0.00047  -0.00047   0.00078
   25 F2      .S        0.00163  -0.02736   0.00176   0.00176  -0.00263
   26 F2      .X       -0.00000  -0.00000  -0.00096   0.00096   0.00000
   27 F2      .Y       -0.00000  -0.00000  -0.00000   0.00000   0.00000
   28 F2      .Z       -0.00070  -0.00084  -0.00046  -0.00046   0.00066
   29 F2      .XX      -0.00027  -0.01066  -0.00031  -0.00031   0.00031
   30 F2      .YY      -0.00027  -0.01066  -0.00032  -0.00032   0.00031
   31 F2      .ZZ      -0.00028  -0.01063  -0.00031  -0.00031   0.00033
   32 F2      .XY      -0.00000  -0.00000  -0.00000   0.00000   0.00000
   33 F2      .XZ      -0.00000   0.00000   0.00001  -0.00001  -0.00000
   34 F2      .YZ       0.00000   0.00000   0.00000  -0.00000  -0.00000
   35 F3      .S       -0.00019  -0.00019  -0.00019  -0.00019  -0.00019
   36 F3      .S       -0.00003  -0.00011  -0.00011  -0.00011  -0.00011
   37 F3      .X       -0.00000   0.00000  -0.00104   0.00104  -0.00000
   38 F3      .Y       -0.00078  -0.00047  -0.00047  -0.00047  -0.00047
   39 F3      .Z        0.00000   0.00104   0.00000   0.00000  -0.00104
   40 F3      .S        0.00163   0.00176   0.00176   0.00176   0.00176
   41 F3      .X       -0.00000   0.00000  -0.00096   0.00096  -0.00000
   42 F3      .Y       -0.00070  -0.00046  -0.00046  -0.00046  -0.00046
   43 F3      .Z        0.00000   0.00096   0.00000   0.00000  -0.00096
   44 F3      .XX      -0.00027  -0.00032  -0.00031  -0.00031  -0.00032
   45 F3      .YY      -0.00028  -0.00031  -0.00031  -0.00031  -0.00031
   46 F3      .ZZ      -0.00027  -0.00031  -0.00032  -0.00032  -0.00031
   47 F3      .XY      -0.00000  -0.00000   0.00001  -0.00001   0.00000
   48 F3      .XZ      -0.00000  -0.00000   0.00000  -0.00000   0.00000
   49 F3      .YZ      -0.00000  -0.00001  -0.00000  -0.00000   0.00001
   50 F4      .S       -0.00019   0.00033  -0.00019  -0.00019   1.01048
   51 F4      .S       -0.00003  -0.00066  -0.00011  -0.00011  -0.03168
   52 F4      .X       -0.00000   0.00000  -0.00104   0.00104  -0.00000
   53 F4      .Y       -0.00000  -0.00000  -0.00000   0.00000   0.00000
   54 F4      .Z        0.00078  -0.00078   0.00047   0.00047   0.00089
   55 F4      .S        0.00163  -0.00263   0.00176   0.00176  -0.02736
   56 F4      .X       -0.00000   0.00000  -0.00096   0.00096  -0.00000
   57 F4      .Y       -0.00000  -0.00000  -0.00000   0.00000   0.00000
   58 F4      .Z        0.00070  -0.00066   0.00046   0.00046   0.00084
   59 F4      .XX      -0.00027   0.00031  -0.00031  -0.00031  -0.01066
   60 F4      .YY      -0.00027   0.00031  -0.00032  -0.00032  -0.01066
   61 F4      .ZZ      -0.00028   0.00033  -0.00031  -0.00031  -0.01063
   62 F4      .XY      -0.00000   0.00000  -0.00000   0.00000  -0.00000
   63 F4      .XZ       0.00000   0.00000  -0.00001   0.00001  -0.00000
   64 F4      .YZ       0.00000   0.00000  -0.00000   0.00000  -0.00000
   65 F5      .S       -0.00019  -0.00019  -0.00019  -0.00019  -0.00019
   66 F5      .S       -0.00003  -0.00011  -0.00011  -0.00011  -0.00011
   67 F5      .X       -0.00000  -0.00000  -0.00104   0.00104  -0.00000
   68 F5      .Y        0.00078   0.00047   0.00047   0.00047   0.00047
   69 F5      .Z        0.00000   0.00104  -0.00000   0.00000  -0.00104
   70 F5      .S        0.00163   0.00176   0.00176   0.00176   0.00176
   71 F5      .X       -0.00000  -0.00000  -0.00096   0.00096  -0.00000
   72 F5      .Y        0.00070   0.00046   0.00046   0.00046   0.00046
   73 F5      .Z        0.00000   0.00096  -0.00000   0.00000  -0.00096
   74 F5      .XX      -0.00027  -0.00032  -0.00031  -0.00031  -0.00032
   75 F5      .YY      -0.00028  -0.00031  -0.00031  -0.00031  -0.00031
   76 F5      .ZZ      -0.00027  -0.00031  -0.00032  -0.00032  -0.00031
   77 F5      .XY       0.00000  -0.00000  -0.00001   0.00001  -0.00000
   78 F5      .XZ      -0.00000   0.00000   0.00000  -0.00000  -0.00000
   79 F5      .YZ       0.00000   0.00001  -0.00000   0.00000  -0.00001
   80 F6      .S       -0.00019  -0.00019   0.00033   1.01048  -0.00019
   81 F6      .S       -0.00003  -0.00011  -0.00066  -0.03168  -0.00011
   82 F6      .X       -0.00078  -0.00047   0.00078  -0.00089  -0.00047
   83 F6      .Y       -0.00000  -0.00000  -0.00000  -0.00000   0.00000
   84 F6      .Z        0.00000   0.00104   0.00000  -0.00000  -0.00104
   85 F6      .S        0.00163   0.00176  -0.00263  -0.02736   0.00176
   86 F6      .X       -0.00070  -0.00046   0.00066  -0.00084  -0.00046
   87 F6      .Y       -0.00000  -0.00000  -0.00000  -0.00000   0.00000
   88 F6      .Z        0.00000   0.00096   0.00000  -0.00000  -0.00096
   89 F6      .XX      -0.00028  -0.00031   0.00033  -0.01063  -0.00031
   90 F6      .YY      -0.00027  -0.00032   0.00031  -0.01066  -0.00032
   91 F6      .ZZ      -0.00027  -0.00031   0.00031  -0.01066  -0.00031
   92 F6      .XY       0.00000   0.00000  -0.00000  -0.00000   0.00000
   93 F6      .XZ       0.00000  -0.00001  -0.00000   0.00000   0.00001
   94 F6      .YZ      -0.00000   0.00000   0.00000  -0.00000   0.00000
   95 F7      .S       -0.00019  -0.00019   1.01048   0.00033  -0.00019
   96 F7      .S       -0.00003  -0.00011  -0.03168  -0.00066  -0.00011
   97 F7      .X        0.00078   0.00047   0.00089  -0.00078   0.00047
   98 F7      .Y       -0.00000   0.00000  -0.00000   0.00000   0.00000
   99 F7      .Z        0.00000   0.00104   0.00000   0.00000  -0.00104
  100 F7      .S        0.00163   0.00176  -0.02736  -0.00263   0.00176
  101 F7      .X        0.00070   0.00046   0.00084  -0.00066   0.00046
  102 F7      .Y       -0.00000   0.00000   0.00000   0.00000   0.00000
  103 F7      .Z        0.00000   0.00096   0.00000   0.00000  -0.00096
  104 F7      .XX      -0.00028  -0.00031  -0.01063   0.00033  -0.00031
  105 F7      .YY      -0.00027  -0.00032  -0.01066   0.00031  -0.00032
  106 F7      .ZZ      -0.00027  -0.00031  -0.01066   0.00031  -0.00031
  107 F7      .XY      -0.00000   0.00000   0.00000   0.00000   0.00000
  108 F7      .XZ      -0.00000   0.00001   0.00000   0.00000  -0.00001
  109 F7      .YZ       0.00000  -0.00000   0.00000  -0.00000  -0.00000
                           6         7         8         9        10
                           O         O         O         O         O    
     Eigenvalues --  -668.28314-668.28314-282.60154-171.36728-171.36728
    1 S1      .S       -0.00002  -0.00002  -0.12125  -0.00000   0.00000
    2 S1      .S        0.00044   0.00044   1.03727  -0.00000   0.00000
    3 S1      .X        0.00000   0.00000   0.00000   0.00000   0.99833
    4 S1      .Y       -0.00191   0.00191   0.00000   0.00000  -0.00000
    5 S1      .Z        0.00000  -0.00000  -0.00000   0.99833   0.00000
    6 S1      .S        0.00231   0.00231  -0.02391  -0.00000  -0.00000
    7 S1      .X        0.00000   0.00000  -0.00000  -0.00000   0.00997
    8 S1      .Y        0.00362  -0.00362   0.00000  -0.00000  -0.00000
    9 S1      .Z        0.00000  -0.00000   0.00000   0.00997  -0.00000
   10 S1      .S       -0.00297  -0.00297   0.02361   0.00000   0.00000
   11 S1      .X        0.00000  -0.00000  -0.00000  -0.00000  -0.00106
   12 S1      .Y        0.00557  -0.00557   0.00000  -0.00000   0.00000
   13 S1      .Z        0.00000  -0.00000   0.00000  -0.00106  -0.00000
   14 S1      .XX      -0.00034  -0.00034  -0.00892   0.00000   0.00000
   15 S1      .YY      -0.00072  -0.00072  -0.00892   0.00000  -0.00000
   16 S1      .ZZ      -0.00034  -0.00034  -0.00892  -0.00000  -0.00000
   17 S1      .XY      -0.00000  -0.00000  -0.00000   0.00000   0.00000
   18 S1      .XZ      -0.00000  -0.00000  -0.00000   0.00000  -0.00000
   19 S1      .YZ       0.00000  -0.00000   0.00000  -0.00000  -0.00000
   20 F2      .S       -0.00019  -0.00019   0.00247   0.00214  -0.00000
   21 F2      .S       -0.00011  -0.00011   0.00183  -0.00319   0.00000
   22 F2      .X        0.00000   0.00000   0.00000   0.00000  -0.00217
   23 F2      .Y       -0.00104   0.00104  -0.00000   0.00000  -0.00000
   24 F2      .Z       -0.00047  -0.00047   0.01249   0.01099  -0.00000
   25 F2      .S        0.00176   0.00176  -0.02302  -0.01024  -0.00000
   26 F2      .X        0.00000   0.00000   0.00000   0.00000  -0.00191
   27 F2      .Y       -0.00096   0.00096  -0.00000   0.00000  -0.00000
   28 F2      .Z       -0.00046  -0.00046   0.01104   0.00970  -0.00000
   29 F2      .XX      -0.00032  -0.00032   0.00420   0.00108   0.00000
   30 F2      .YY      -0.00031  -0.00031   0.00420   0.00108   0.00000
   31 F2      .ZZ      -0.00031  -0.00031   0.00422   0.00108   0.00000
   32 F2      .XY       0.00000  -0.00000   0.00000  -0.00000  -0.00000
   33 F2      .XZ      -0.00000   0.00000  -0.00000  -0.00000   0.00000
   34 F2      .YZ       0.00001  -0.00001  -0.00000   0.00000   0.00000
   35 F3      .S        0.00033   1.01048   0.00247  -0.00000  -0.00000
   36 F3      .S       -0.00066  -0.03168   0.00183   0.00000   0.00000
   37 F3      .X        0.00000  -0.00000   0.00000   0.00000  -0.00217
   38 F3      .Y        0.00078  -0.00089   0.01249  -0.00000  -0.00000
   39 F3      .Z        0.00000   0.00000  -0.00000  -0.00217   0.00000
   40 F3      .S       -0.00263  -0.02736  -0.02302  -0.00000  -0.00000
   41 F3      .X        0.00000   0.00000   0.00000   0.00000  -0.00191
   42 F3      .Y        0.00066  -0.00084   0.01104  -0.00000  -0.00000
   43 F3      .Z        0.00000   0.00000  -0.00000  -0.00191   0.00000
   44 F3      .XX       0.00031  -0.01066   0.00420   0.00000   0.00000
   45 F3      .YY       0.00033  -0.01063   0.00422   0.00000   0.00000
   46 F3      .ZZ       0.00031  -0.01066   0.00420   0.00000   0.00000
   47 F3      .XY      -0.00000   0.00000  -0.00000  -0.00000  -0.00000
   48 F3      .XZ      -0.00000  -0.00000   0.00000  -0.00000  -0.00000
   49 F3      .YZ      -0.00000  -0.00000  -0.00000   0.00000  -0.00000
   50 F4      .S       -0.00019  -0.00019   0.00247  -0.00214   0.00000
   51 F4      .S       -0.00011  -0.00011   0.00183   0.00319  -0.00000
   52 F4      .X       -0.00000  -0.00000   0.00000   0.00000  -0.00217
   53 F4      .Y       -0.00104   0.00104  -0.00000   0.00000   0.00000
   54 F4      .Z        0.00047   0.00047  -0.01249   0.01099  -0.00000
   55 F4      .S        0.00176   0.00176  -0.02302   0.01024   0.00000
   56 F4      .X       -0.00000  -0.00000   0.00000   0.00000  -0.00191
   57 F4      .Y       -0.00096   0.00096  -0.00000   0.00000   0.00000
   58 F4      .Z        0.00046   0.00046  -0.01104   0.00970  -0.00000
   59 F4      .XX      -0.00032  -0.00032   0.00420  -0.00108  -0.00000
   60 F4      .YY      -0.00031  -0.00031   0.00420  -0.00108  -0.00000
   61 F4      .ZZ      -0.00031  -0.00031   0.00422  -0.00108  -0.00000
   62 F4      .XY      -0.00000  -0.00000  -0.00000   0.00000  -0.00000
   63 F4      .XZ      -0.00000   0.00000  -0.00000   0.00000  -0.00000
   64 F4      .YZ      -0.00001   0.00001   0.00000   0.00000   0.00000
   65 F5      .S        1.01048   0.00033   0.00247   0.00000  -0.00000
   66 F5      .S       -0.03168  -0.00066   0.00183  -0.00000   0.00000
   67 F5      .X       -0.00000  -0.00000   0.00000   0.00000  -0.00217
   68 F5      .Y        0.00089  -0.00078  -0.01249  -0.00000   0.00000
   69 F5      .Z        0.00000   0.00000  -0.00000  -0.00217   0.00000
   70 F5      .S       -0.02736  -0.00263  -0.02302   0.00000  -0.00000
   71 F5      .X        0.00000  -0.00000   0.00000   0.00000  -0.00191
   72 F5      .Y        0.00084  -0.00066  -0.01104  -0.00000  -0.00000
   73 F5      .Z        0.00000   0.00000  -0.00000  -0.00191   0.00000
   74 F5      .XX      -0.01066   0.00031   0.00420  -0.00000   0.00000
   75 F5      .YY      -0.01063   0.00033   0.00422  -0.00000   0.00000
   76 F5      .ZZ      -0.01066   0.00031   0.00420  -0.00000   0.00000
   77 F5      .XY       0.00000   0.00000   0.00000   0.00000   0.00000
   78 F5      .XZ      -0.00000  -0.00000   0.00000   0.00000   0.00000
   79 F5      .YZ       0.00000  -0.00000   0.00000  -0.00000  -0.00000
   80 F6      .S       -0.00019  -0.00019   0.00247   0.00000   0.00214
   81 F6      .S       -0.00011  -0.00011   0.00183   0.00000  -0.00319
   82 F6      .X       -0.00047  -0.00047   0.01249  -0.00000   0.01099
   83 F6      .Y       -0.00104   0.00104  -0.00000   0.00000  -0.00000
   84 F6      .Z       -0.00000  -0.00000  -0.00000  -0.00217   0.00000
   85 F6      .S        0.00176   0.00176  -0.02302  -0.00000  -0.01024
   86 F6      .X       -0.00046  -0.00046   0.01104  -0.00000   0.00970
   87 F6      .Y       -0.00096   0.00096  -0.00000   0.00000  -0.00000
   88 F6      .Z       -0.00000   0.00000  -0.00000  -0.00191   0.00000
   89 F6      .XX      -0.00031  -0.00031   0.00422   0.00000   0.00108
   90 F6      .YY      -0.00031  -0.00031   0.00420   0.00000   0.00108
   91 F6      .ZZ      -0.00032  -0.00032   0.00420   0.00000   0.00108
   92 F6      .XY       0.00001  -0.00001   0.00000   0.00000   0.00000
   93 F6      .XZ       0.00000   0.00000  -0.00000   0.00000  -0.00000
   94 F6      .YZ       0.00000   0.00000   0.00000  -0.00000  -0.00000
   95 F7      .S       -0.00019  -0.00019   0.00247   0.00000  -0.00214
   96 F7      .S       -0.00011  -0.00011   0.00183  -0.00000   0.00319
   97 F7      .X        0.00047   0.00047  -0.01249  -0.00000   0.01099
   98 F7      .Y       -0.00104   0.00104  -0.00000   0.00000   0.00000
   99 F7      .Z        0.00000   0.00000  -0.00000  -0.00217   0.00000
  100 F7      .S        0.00176   0.00176  -0.02302  -0.00000   0.01024
  101 F7      .X        0.00046   0.00046  -0.01104  -0.00000   0.00970
  102 F7      .Y       -0.00096   0.00096  -0.00000   0.00000   0.00000
  103 F7      .Z        0.00000   0.00000  -0.00000  -0.00191   0.00000
  104 F7      .XX      -0.00031  -0.00031   0.00422  -0.00000  -0.00108
  105 F7      .YY      -0.00031  -0.00031   0.00420  -0.00000  -0.00108
  106 F7      .ZZ      -0.00032  -0.00032   0.00420  -0.00000  -0.00108
  107 F7      .XY      -0.00001   0.00001  -0.00000  -0.00000  -0.00000
  108 F7      .XZ       0.00000   0.00000   0.00000  -0.00000   0.00000
  109 F7      .YZ       0.00000   0.00000  -0.00000   0.00000  -0.00000
                          11        12        13        14        15
                           O         O         O         O         O    
     Eigenvalues --  -171.36728 -32.45649 -32.45649 -32.45649 -32.45649
    1 S1      .S       -0.00000  -0.00441  -0.00441  -0.00441  -0.00441
    2 S1      .S       -0.00000   0.02277   0.02277   0.02277   0.02277
    3 S1      .X       -0.00000   0.03841  -0.03841  -0.00000  -0.00000
    4 S1      .Y        0.99833  -0.00000  -0.00000  -0.00000   0.03841
    5 S1      .Z       -0.00000  -0.00000   0.00000   0.03841   0.00000
    6 S1      .S        0.00000  -0.02918  -0.02918  -0.02918  -0.02918
    7 S1      .X        0.00000  -0.11587   0.11587  -0.00000  -0.00000
    8 S1      .Y        0.00997   0.00000  -0.00000   0.00000  -0.11587
    9 S1      .Z        0.00000  -0.00000  -0.00000  -0.11587  -0.00000
   10 S1      .S       -0.00000  -0.06918  -0.06918  -0.06918  -0.06918
   11 S1      .X        0.00000  -0.09360   0.09360  -0.00000  -0.00000
   12 S1      .Y       -0.00106   0.00000   0.00000   0.00000  -0.09360
   13 S1      .Z        0.00000  -0.00000  -0.00000  -0.09360  -0.00000
   14 S1      .XX       0.00000  -0.01304  -0.01304  -0.00284  -0.00284
   15 S1      .YY      -0.00000  -0.00284  -0.00284  -0.00284  -0.01304
   16 S1      .ZZ       0.00000  -0.00284  -0.00284  -0.01304  -0.00284
   17 S1      .XY       0.00000   0.00000  -0.00000  -0.00000  -0.00000
   18 S1      .XZ       0.00000   0.00000  -0.00000   0.00000   0.00000
   19 S1      .YZ       0.00000   0.00000  -0.00000   0.00000   0.00000
   20 F2      .S        0.00000  -0.00206  -0.00206  -0.14481  -0.00206
   21 F2      .S       -0.00000  -0.00305  -0.00305   0.50027  -0.00305
   22 F2      .X       -0.00000   0.00769  -0.00769  -0.00000  -0.00000
   23 F2      .Y       -0.00217   0.00000  -0.00000   0.00000   0.00769
   24 F2      .Z        0.00000  -0.00403  -0.00403   0.24599  -0.00403
   25 F2      .S        0.00000   0.02854   0.02854   0.59407   0.02854
   26 F2      .X       -0.00000   0.00867  -0.00867   0.00000   0.00000
   27 F2      .Y       -0.00191   0.00000  -0.00000  -0.00000   0.00867
   28 F2      .Z        0.00000  -0.00663  -0.00663   0.14789  -0.00663
   29 F2      .XX      -0.00000  -0.00475  -0.00475  -0.00457  -0.00350
   30 F2      .YY      -0.00000  -0.00350  -0.00350  -0.00457  -0.00475
   31 F2      .ZZ      -0.00000  -0.00441  -0.00441  -0.00460  -0.00441
   32 F2      .XY       0.00000   0.00000  -0.00000   0.00000  -0.00000
   33 F2      .XZ       0.00000   0.00002  -0.00002  -0.00000  -0.00000
   34 F2      .YZ       0.00000   0.00000   0.00000   0.00000   0.00002
   35 F3      .S        0.00214  -0.00206  -0.00206  -0.00206  -0.14481
   36 F3      .S       -0.00319  -0.00305  -0.00305  -0.00305   0.50027
   37 F3      .X       -0.00000   0.00769  -0.00769  -0.00000  -0.00000
   38 F3      .Y        0.01099  -0.00403  -0.00403  -0.00403   0.24599
   39 F3      .Z       -0.00000   0.00000  -0.00000   0.00769  -0.00000
   40 F3      .S       -0.01024   0.02854   0.02854   0.02854   0.59407
   41 F3      .X       -0.00000   0.00867  -0.00867   0.00000   0.00000
   42 F3      .Y        0.00970  -0.00663  -0.00663  -0.00663   0.14789
   43 F3      .Z       -0.00000   0.00000   0.00000   0.00867   0.00000
   44 F3      .XX       0.00108  -0.00475  -0.00475  -0.00350  -0.00457
   45 F3      .YY       0.00108  -0.00441  -0.00441  -0.00441  -0.00460
   46 F3      .ZZ       0.00108  -0.00350  -0.00350  -0.00475  -0.00457
   47 F3      .XY       0.00000   0.00002  -0.00002  -0.00000  -0.00000
   48 F3      .XZ       0.00000   0.00000  -0.00000  -0.00000   0.00000
   49 F3      .YZ      -0.00000  -0.00000  -0.00000   0.00002  -0.00000
   50 F4      .S       -0.00000  -0.00206  -0.00206   0.00445  -0.00206
   51 F4      .S        0.00000  -0.00305  -0.00305  -0.02434  -0.00305
   52 F4      .X       -0.00000   0.00769  -0.00769  -0.00000  -0.00000
   53 F4      .Y       -0.00217   0.00000  -0.00000  -0.00000   0.00769
   54 F4      .Z        0.00000   0.00403   0.00403  -0.01364   0.00403
   55 F4      .S       -0.00000   0.02854   0.02854  -0.01411   0.02854
   56 F4      .X       -0.00000   0.00867  -0.00867   0.00000   0.00000
   57 F4      .Y       -0.00191  -0.00000  -0.00000  -0.00000   0.00867
   58 F4      .Z        0.00000   0.00663   0.00663  -0.01066   0.00663
   59 F4      .XX       0.00000  -0.00475  -0.00475  -0.00222  -0.00350
   60 F4      .YY       0.00000  -0.00350  -0.00350  -0.00222  -0.00475
   61 F4      .ZZ       0.00000  -0.00441  -0.00441  -0.00122  -0.00441
   62 F4      .XY       0.00000   0.00000  -0.00000  -0.00000   0.00000
   63 F4      .XZ      -0.00000  -0.00002   0.00002   0.00000   0.00000
   64 F4      .YZ      -0.00000  -0.00000  -0.00000  -0.00000  -0.00002
   65 F5      .S       -0.00214  -0.00206  -0.00206  -0.00206   0.00445
   66 F5      .S        0.00319  -0.00305  -0.00305  -0.00305  -0.02434
   67 F5      .X       -0.00000   0.00769  -0.00769  -0.00000  -0.00000
   68 F5      .Y        0.01099   0.00403   0.00403   0.00403  -0.01364
   69 F5      .Z       -0.00000   0.00000   0.00000   0.00769  -0.00000
   70 F5      .S        0.01024   0.02854   0.02854   0.02854  -0.01411
   71 F5      .X       -0.00000   0.00867  -0.00867   0.00000   0.00000
   72 F5      .Y        0.00970   0.00663   0.00663   0.00663  -0.01066
   73 F5      .Z       -0.00000   0.00000   0.00000   0.00867   0.00000
   74 F5      .XX      -0.00108  -0.00475  -0.00475  -0.00350  -0.00222
   75 F5      .YY      -0.00108  -0.00441  -0.00441  -0.00441  -0.00122
   76 F5      .ZZ      -0.00108  -0.00350  -0.00350  -0.00475  -0.00222
   77 F5      .XY      -0.00000  -0.00002   0.00002   0.00000   0.00000
   78 F5      .XZ       0.00000  -0.00000  -0.00000   0.00000  -0.00000
   79 F5      .YZ      -0.00000   0.00000   0.00000  -0.00002   0.00000
   80 F6      .S        0.00000  -0.14481   0.00445  -0.00206  -0.00206
   81 F6      .S       -0.00000   0.50027  -0.02434  -0.00305  -0.00305
   82 F6      .X        0.00000   0.24599   0.01364  -0.00403  -0.00403
   83 F6      .Y       -0.00217   0.00000  -0.00000  -0.00000   0.00769
   84 F6      .Z       -0.00000  -0.00000  -0.00000   0.00769  -0.00000
   85 F6      .S        0.00000   0.59407  -0.01411   0.02854   0.02854
   86 F6      .X        0.00000   0.14789   0.01066  -0.00663  -0.00663
   87 F6      .Y       -0.00191  -0.00000  -0.00000  -0.00000   0.00867
   88 F6      .Z       -0.00000   0.00000   0.00000   0.00867   0.00000
   89 F6      .XX      -0.00000  -0.00460  -0.00122  -0.00441  -0.00441
   90 F6      .YY      -0.00000  -0.00457  -0.00222  -0.00350  -0.00475
   91 F6      .ZZ      -0.00000  -0.00457  -0.00222  -0.00475  -0.00350
   92 F6      .XY       0.00000   0.00000   0.00000   0.00000   0.00002
   93 F6      .XZ      -0.00000  -0.00000  -0.00000   0.00002  -0.00000
   94 F6      .YZ       0.00000   0.00000  -0.00000  -0.00000  -0.00000
   95 F7      .S       -0.00000   0.00445  -0.14481  -0.00206  -0.00206
   96 F7      .S        0.00000  -0.02434   0.50027  -0.00305  -0.00305
   97 F7      .X        0.00000  -0.01364  -0.24599   0.00403   0.00403
   98 F7      .Y       -0.00217   0.00000  -0.00000   0.00000   0.00769
   99 F7      .Z       -0.00000  -0.00000  -0.00000   0.00769  -0.00000
  100 F7      .S        0.00000  -0.01411   0.59407   0.02854   0.02854
  101 F7      .X        0.00000  -0.01066  -0.14789   0.00663   0.00663
  102 F7      .Y       -0.00191  -0.00000  -0.00000   0.00000   0.00867
  103 F7      .Z       -0.00000   0.00000   0.00000   0.00867   0.00000
  104 F7      .XX       0.00000  -0.00122  -0.00460  -0.00441  -0.00441
  105 F7      .YY       0.00000  -0.00222  -0.00457  -0.00350  -0.00475
  106 F7      .ZZ       0.00000  -0.00222  -0.00457  -0.00475  -0.00350
  107 F7      .XY      -0.00000  -0.00000  -0.00000  -0.00000  -0.00002
  108 F7      .XZ       0.00000   0.00000   0.00000  -0.00002   0.00000
  109 F7      .YZ       0.00000   0.00000   0.00000  -0.00000   0.00000
                          16        17        18        19        20
                           O         O         O         O         O    
     Eigenvalues --   -32.45649 -32.45649 -22.95165 -22.95165 -22.95165
    1 S1      .S       -0.00441  -0.00441  -0.00958   0.00958  -0.00958
    2 S1      .S        0.02277   0.02277   0.04106  -0.04106   0.04106
    3 S1      .X        0.00000  -0.00000   0.08549   0.00000  -0.00000
    4 S1      .Y       -0.03841  -0.00000   0.00000   0.08549   0.00000
    5 S1      .Z        0.00000  -0.03841   0.00000  -0.00000   0.08549
    6 S1      .S       -0.02918  -0.02918  -0.11327   0.11327  -0.11327
    7 S1      .X       -0.00000  -0.00000  -0.25626  -0.00000   0.00000
    8 S1      .Y        0.11587   0.00000  -0.00000  -0.25626  -0.00000
    9 S1      .Z       -0.00000   0.11587   0.00000  -0.00000  -0.25626
   10 S1      .S       -0.06918  -0.06918  -0.04787   0.04787  -0.04787
   11 S1      .X       -0.00000  -0.00000   0.03946  -0.00000   0.00000
   12 S1      .Y        0.09360   0.00000  -0.00000   0.03946  -0.00000
   13 S1      .Z       -0.00000   0.09360   0.00000  -0.00000   0.03946
   14 S1      .XX      -0.00284  -0.00284  -0.29839  -0.16020   0.16020
   15 S1      .YY      -0.01304  -0.00284   0.16020   0.29839   0.16020
   16 S1      .ZZ      -0.00284  -0.01304   0.16020  -0.16020  -0.29839
   17 S1      .XY      -0.00000  -0.00000  -0.00000  -0.00000  -0.00000
   18 S1      .XZ      -0.00000  -0.00000   0.00000   0.00000   0.00000
   19 S1      .YZ       0.00000  -0.00000  -0.00000  -0.00000  -0.00000
   20 F2      .S       -0.00206   0.00445   0.00241  -0.00241   0.03319
   21 F2      .S       -0.00305  -0.02434  -0.00736   0.00736  -0.23109
   22 F2      .X        0.00000   0.00000   0.00493   0.00000  -0.00000
   23 F2      .Y       -0.00769   0.00000   0.00000   0.00493   0.00000
   24 F2      .Z       -0.00403   0.01364   0.01127  -0.01127   0.49434
   25 F2      .S        0.02854  -0.01411  -0.00621   0.00621   0.01211
   26 F2      .X        0.00000   0.00000   0.00968   0.00000  -0.00000
   27 F2      .Y       -0.00867  -0.00000   0.00000   0.00968   0.00000
   28 F2      .Z       -0.00663   0.01066   0.00180  -0.00180   0.29857
   29 F2      .XX      -0.00350  -0.00222   0.00123  -0.00326  -0.02920
   30 F2      .YY      -0.00475  -0.00222   0.00326  -0.00123  -0.02920
   31 F2      .ZZ      -0.00441  -0.00122   0.00200  -0.00200  -0.07667
   32 F2      .XY      -0.00000   0.00000   0.00000   0.00000  -0.00000
   33 F2      .XZ      -0.00000  -0.00000  -0.00003   0.00000  -0.00000
   34 F2      .YZ      -0.00002   0.00000   0.00000  -0.00003  -0.00000
   35 F3      .S        0.00445  -0.00206   0.00241   0.01136   0.00241
   36 F3      .S       -0.02434  -0.00305  -0.00736   0.00225  -0.00736
   37 F3      .X        0.00000   0.00000   0.00493   0.00000  -0.00000
   38 F3      .Y        0.01364  -0.00403   0.01127   0.02676   0.01127
   39 F3      .Z       -0.00000  -0.00769  -0.00000   0.00000   0.00493
   40 F3      .S       -0.01411   0.02854  -0.00621  -0.10747  -0.00621
   41 F3      .X        0.00000   0.00000   0.00968   0.00000  -0.00000
   42 F3      .Y        0.01066  -0.00663   0.00180   0.02467   0.00180
   43 F3      .Z        0.00000  -0.00867  -0.00000   0.00000   0.00968
   44 F3      .XX      -0.00222  -0.00350   0.00123   0.01766   0.00326
   45 F3      .YY      -0.00122  -0.00441   0.00200   0.01769   0.00200
   46 F3      .ZZ      -0.00222  -0.00475   0.00326   0.01766   0.00123
   47 F3      .XY      -0.00000  -0.00000  -0.00003   0.00000  -0.00000
   48 F3      .XZ       0.00000  -0.00000   0.00000  -0.00000  -0.00000
   49 F3      .YZ      -0.00000  -0.00002  -0.00000   0.00000  -0.00003
   50 F4      .S       -0.00206  -0.14481   0.00241  -0.00241  -0.01136
   51 F4      .S       -0.00305   0.50027  -0.00736   0.00736  -0.00225
   52 F4      .X        0.00000  -0.00000   0.00493   0.00000  -0.00000
   53 F4      .Y       -0.00769  -0.00000   0.00000   0.00493   0.00000
   54 F4      .Z        0.00403  -0.24599  -0.01127   0.01127   0.02676
   55 F4      .S        0.02854   0.59407  -0.00621   0.00621   0.10747
   56 F4      .X        0.00000   0.00000   0.00968   0.00000  -0.00000
   57 F4      .Y       -0.00867  -0.00000   0.00000   0.00968   0.00000
   58 F4      .Z        0.00663  -0.14789  -0.00180   0.00180   0.02467
   59 F4      .XX      -0.00350  -0.00457   0.00123  -0.00326  -0.01766
   60 F4      .YY      -0.00475  -0.00457   0.00326  -0.00123  -0.01766
   61 F4      .ZZ      -0.00441  -0.00460   0.00200  -0.00200  -0.01769
   62 F4      .XY       0.00000   0.00000   0.00000   0.00000   0.00000
   63 F4      .XZ       0.00000   0.00000   0.00003  -0.00000   0.00000
   64 F4      .YZ       0.00002  -0.00000  -0.00000   0.00003   0.00000
   65 F5      .S       -0.14481  -0.00206   0.00241  -0.03319   0.00241
   66 F5      .S        0.50027  -0.00305  -0.00736   0.23109  -0.00736
   67 F5      .X        0.00000   0.00000   0.00493   0.00000  -0.00000
   68 F5      .Y       -0.24599   0.00403  -0.01127   0.49434  -0.01127
   69 F5      .Z       -0.00000  -0.00769  -0.00000   0.00000   0.00493
   70 F5      .S        0.59407   0.02854  -0.00621  -0.01211  -0.00621
   71 F5      .X        0.00000   0.00000   0.00968   0.00000  -0.00000
   72 F5      .Y       -0.14789   0.00663  -0.00180   0.29857  -0.00180
   73 F5      .Z        0.00000  -0.00867  -0.00000   0.00000   0.00968
   74 F5      .XX      -0.00457  -0.00350   0.00123   0.02920   0.00326
   75 F5      .YY      -0.00460  -0.00441   0.00200   0.07667   0.00200
   76 F5      .ZZ      -0.00457  -0.00475   0.00326   0.02920   0.00123
   77 F5      .XY       0.00000   0.00000   0.00003  -0.00000   0.00000
   78 F5      .XZ       0.00000   0.00000  -0.00000  -0.00000   0.00000
   79 F5      .YZ       0.00000   0.00002   0.00000  -0.00000   0.00003
   80 F6      .S       -0.00206  -0.00206   0.03319  -0.00241   0.00241
   81 F6      .S       -0.00305  -0.00305  -0.23109   0.00736  -0.00736
   82 F6      .X       -0.00403  -0.00403   0.49434  -0.01127   0.01127
   83 F6      .Y       -0.00769  -0.00000   0.00000   0.00493   0.00000
   84 F6      .Z       -0.00000  -0.00769  -0.00000   0.00000   0.00493
   85 F6      .S        0.02854   0.02854   0.01211   0.00621  -0.00621
   86 F6      .X       -0.00663  -0.00663   0.29857  -0.00180   0.00180
   87 F6      .Y       -0.00867  -0.00000   0.00000   0.00968   0.00000
   88 F6      .Z        0.00000  -0.00867  -0.00000   0.00000   0.00968
   89 F6      .XX      -0.00441  -0.00441  -0.07667  -0.00200   0.00200
   90 F6      .YY      -0.00475  -0.00350  -0.02920  -0.00123   0.00326
   91 F6      .ZZ      -0.00350  -0.00475  -0.02920  -0.00326   0.00123
   92 F6      .XY      -0.00002   0.00000   0.00000  -0.00003   0.00000
   93 F6      .XZ      -0.00000  -0.00002  -0.00000   0.00000  -0.00003
   94 F6      .YZ       0.00000  -0.00000   0.00000  -0.00000  -0.00000
   95 F7      .S       -0.00206  -0.00206  -0.01136  -0.00241   0.00241
   96 F7      .S       -0.00305  -0.00305  -0.00225   0.00736  -0.00736
   97 F7      .X        0.00403   0.00403   0.02676   0.01127  -0.01127
   98 F7      .Y       -0.00769  -0.00000   0.00000   0.00493   0.00000
   99 F7      .Z       -0.00000  -0.00769  -0.00000   0.00000   0.00493
  100 F7      .S        0.02854   0.02854   0.10747   0.00621  -0.00621
  101 F7      .X        0.00663   0.00663   0.02467   0.00180  -0.00180
  102 F7      .Y       -0.00867  -0.00000   0.00000   0.00968   0.00000
  103 F7      .Z        0.00000  -0.00867  -0.00000   0.00000   0.00968
  104 F7      .XX      -0.00441  -0.00441  -0.01769  -0.00200   0.00200
  105 F7      .YY      -0.00475  -0.00350  -0.01766  -0.00123   0.00326
  106 F7      .ZZ      -0.00350  -0.00475  -0.01766  -0.00326   0.00123
  107 F7      .XY       0.00002  -0.00000  -0.00000   0.00003  -0.00000
  108 F7      .XZ       0.00000   0.00002   0.00000  -0.00000   0.00003
  109 F7      .YZ       0.00000  -0.00000   0.00000  -0.00000  -0.00000
                          21        22        23        24        25
                           O         O         O         O         O    
     Eigenvalues --   -22.95165 -22.95165 -22.95165 -12.82024 -12.82024
    1 S1      .S        0.00958   0.00958  -0.00958  -0.00000  -0.00000
    2 S1      .S       -0.04106  -0.04106   0.04106  -0.00000  -0.00000
    3 S1      .X        0.00000   0.08549  -0.00000   0.01845   0.01845
    4 S1      .Y       -0.00000  -0.00000   0.08549  -0.00000   0.00000
    5 S1      .Z        0.08549   0.00000  -0.00000  -0.00000  -0.00000
    6 S1      .S        0.11327   0.11327  -0.11327  -0.00000  -0.00000
    7 S1      .X       -0.00000  -0.25626   0.00000  -0.06285  -0.06285
    8 S1      .Y        0.00000   0.00000  -0.25626   0.00000   0.00000
    9 S1      .Z       -0.25626  -0.00000   0.00000   0.00000   0.00000
   10 S1      .S        0.04787   0.04787  -0.04787   0.00000   0.00000
   11 S1      .X       -0.00000   0.03946   0.00000   0.03315   0.03315
   12 S1      .Y        0.00000   0.00000   0.03946   0.00000   0.00000
   13 S1      .Z        0.03946  -0.00000   0.00000  -0.00000  -0.00000
   14 S1      .XX      -0.16020   0.29839   0.16020   0.00000   0.00000
   15 S1      .YY      -0.16020  -0.16020  -0.29839   0.00000   0.00000
   16 S1      .ZZ       0.29839  -0.16020   0.16020   0.00000   0.00000
   17 S1      .XY       0.00000   0.00000   0.00000  -0.00108   0.00108
   18 S1      .XZ       0.00000   0.00000  -0.00000  -0.00000   0.00000
   19 S1      .YZ       0.00000   0.00000   0.00000  -0.00000  -0.00000
   20 F2      .S        0.01136  -0.00241   0.00241   0.00000   0.00000
   21 F2      .S        0.00225   0.00736  -0.00736   0.00000   0.00000
   22 F2      .X        0.00000   0.00493  -0.00000   0.00327   0.00327
   23 F2      .Y       -0.00000  -0.00000   0.00493  -0.00000   0.00000
   24 F2      .Z        0.02676  -0.01127   0.01127   0.00000   0.00000
   25 F2      .S       -0.10747   0.00621  -0.00621  -0.00000  -0.00000
   26 F2      .X        0.00000   0.00968  -0.00000  -0.00693  -0.00693
   27 F2      .Y       -0.00000  -0.00000   0.00968  -0.00000   0.00000
   28 F2      .Z        0.02467  -0.00180   0.00180   0.00000   0.00000
   29 F2      .XX       0.01766  -0.00123   0.00326   0.00000   0.00000
   30 F2      .YY       0.01766  -0.00326   0.00123   0.00000   0.00000
   31 F2      .ZZ       0.01769  -0.00200   0.00200   0.00000   0.00000
   32 F2      .XY       0.00000   0.00000   0.00000  -0.00031   0.00031
   33 F2      .XZ       0.00000  -0.00003  -0.00000   0.00115   0.00115
   34 F2      .YZ      -0.00000  -0.00000  -0.00003   0.00000   0.00000
   35 F3      .S       -0.00241  -0.00241   0.03319   0.00000   0.00000
   36 F3      .S        0.00736   0.00736  -0.23109   0.00000   0.00000
   37 F3      .X        0.00000   0.00493  -0.00000   0.00618   0.68031
   38 F3      .Y       -0.01127  -0.01127   0.49434   0.00000   0.00000
   39 F3      .Z        0.00493   0.00000  -0.00000  -0.00000  -0.00000
   40 F3      .S        0.00621   0.00621   0.01211  -0.00000  -0.00000
   41 F3      .X        0.00000   0.00968  -0.00000  -0.00468   0.47168
   42 F3      .Y       -0.00180  -0.00180   0.29857   0.00000   0.00000
   43 F3      .Z        0.00968   0.00000  -0.00000  -0.00000  -0.00000
   44 F3      .XX      -0.00326  -0.00123  -0.02920   0.00000   0.00000
   45 F3      .YY      -0.00200  -0.00200  -0.07667   0.00000   0.00000
   46 F3      .ZZ      -0.00123  -0.00326  -0.02920   0.00000   0.00000
   47 F3      .XY       0.00000  -0.00003  -0.00000   0.00119  -0.03129
   48 F3      .XZ      -0.00000   0.00000  -0.00000  -0.00000  -0.00000
   49 F3      .YZ      -0.00003   0.00000  -0.00000  -0.00000  -0.00000
   50 F4      .S       -0.03319  -0.00241   0.00241   0.00000   0.00000
   51 F4      .S        0.23109   0.00736  -0.00736   0.00000   0.00000
   52 F4      .X        0.00000   0.00493  -0.00000   0.00327   0.00327
   53 F4      .Y       -0.00000  -0.00000   0.00493  -0.00000  -0.00000
   54 F4      .Z        0.49434   0.01127  -0.01127  -0.00000  -0.00000
   55 F4      .S       -0.01211   0.00621  -0.00621  -0.00000  -0.00000
   56 F4      .X        0.00000   0.00968  -0.00000  -0.00693  -0.00693
   57 F4      .Y       -0.00000  -0.00000   0.00968  -0.00000  -0.00000
   58 F4      .Z        0.29857   0.00180  -0.00180  -0.00000  -0.00000
   59 F4      .XX       0.02920  -0.00123   0.00326   0.00000   0.00000
   60 F4      .YY       0.02920  -0.00326   0.00123   0.00000   0.00000
   61 F4      .ZZ       0.07667  -0.00200   0.00200   0.00000   0.00000
   62 F4      .XY       0.00000   0.00000   0.00000  -0.00031   0.00031
   63 F4      .XZ      -0.00000   0.00003   0.00000  -0.00115  -0.00115
   64 F4      .YZ      -0.00000   0.00000   0.00003  -0.00000   0.00000
   65 F5      .S       -0.00241  -0.00241  -0.01136   0.00000   0.00000
   66 F5      .S        0.00736   0.00736  -0.00225   0.00000   0.00000
   67 F5      .X        0.00000   0.00493  -0.00000   0.68031   0.00618
   68 F5      .Y        0.01127   0.01127   0.02676  -0.00000  -0.00000
   69 F5      .Z        0.00493   0.00000  -0.00000  -0.00000   0.00000
   70 F5      .S        0.00621   0.00621   0.10747  -0.00000  -0.00000
   71 F5      .X        0.00000   0.00968  -0.00000   0.47168  -0.00468
   72 F5      .Y        0.00180   0.00180   0.02467  -0.00000  -0.00000
   73 F5      .Z        0.00968   0.00000  -0.00000  -0.00000   0.00000
   74 F5      .XX      -0.00326  -0.00123  -0.01766   0.00000   0.00000
   75 F5      .YY      -0.00200  -0.00200  -0.01769   0.00000   0.00000
   76 F5      .ZZ      -0.00123  -0.00326  -0.01766   0.00000   0.00000
   77 F5      .XY      -0.00000   0.00003   0.00000   0.03129  -0.00119
   78 F5      .XZ       0.00000   0.00000   0.00000  -0.00000  -0.00000
   79 F5      .YZ       0.00003  -0.00000   0.00000  -0.00000  -0.00000
   80 F6      .S       -0.00241   0.01136   0.00241   0.00500   0.00500
   81 F6      .S        0.00736   0.00225  -0.00736   0.03855   0.03855
   82 F6      .X       -0.01127   0.02676   0.01127  -0.00054  -0.00054
   83 F6      .Y       -0.00000  -0.00000   0.00493   0.01423  -0.01423
   84 F6      .Z        0.00493   0.00000  -0.00000   0.00000  -0.00000
   85 F6      .S        0.00621  -0.10747  -0.00621  -0.10181  -0.10181
   86 F6      .X       -0.00180   0.02467   0.00180   0.00477   0.00477
   87 F6      .Y       -0.00000  -0.00000   0.00968   0.00800  -0.00800
   88 F6      .Z        0.00968   0.00000  -0.00000   0.00000  -0.00000
   89 F6      .XX      -0.00200   0.01769   0.00200   0.02360   0.02360
   90 F6      .YY      -0.00326   0.01766   0.00123   0.02340   0.02340
   91 F6      .ZZ      -0.00123   0.01766   0.00326   0.02192   0.02192
   92 F6      .XY       0.00000  -0.00000  -0.00003   0.00116  -0.00116
   93 F6      .XZ      -0.00003   0.00000  -0.00000  -0.00000   0.00000
   94 F6      .YZ       0.00000  -0.00000  -0.00000  -0.00000   0.00000
   95 F7      .S       -0.00241  -0.03319   0.00241  -0.00500  -0.00500
   96 F7      .S        0.00736   0.23109  -0.00736  -0.03855  -0.03855
   97 F7      .X        0.01127   0.49434  -0.01127  -0.00054  -0.00054
   98 F7      .Y       -0.00000  -0.00000   0.00493  -0.01423   0.01423
   99 F7      .Z        0.00493   0.00000  -0.00000   0.00000  -0.00000
  100 F7      .S        0.00621  -0.01211  -0.00621   0.10181   0.10181
  101 F7      .X        0.00180   0.29857  -0.00180   0.00477   0.00477
  102 F7      .Y       -0.00000  -0.00000   0.00968  -0.00800   0.00800
  103 F7      .Z        0.00968   0.00000  -0.00000   0.00000   0.00000
  104 F7      .XX      -0.00200   0.07667   0.00200  -0.02360  -0.02360
  105 F7      .YY      -0.00326   0.02920   0.00123  -0.02340  -0.02340
  106 F7      .ZZ      -0.00123   0.02920   0.00326  -0.02192  -0.02192
  107 F7      .XY       0.00000   0.00000   0.00003   0.00116  -0.00116
  108 F7      .XZ       0.00003  -0.00000   0.00000   0.00000  -0.00000
  109 F7      .YZ       0.00000  -0.00000   0.00000  -0.00000  -0.00000
                          26        27        28        29        30
                           O         O         O         O         O    
     Eigenvalues --   -12.82024 -12.82024 -12.82024 -12.82024 -12.82024
    1 S1      .S        0.00000   0.00000   0.00000  -0.00000   0.00000
    2 S1      .S        0.00000   0.00000   0.00000  -0.00000   0.00000
    3 S1      .X       -0.00000   0.00000  -0.00000   0.01845   0.00000
    4 S1      .Y        0.01845   0.01845   0.01845   0.00000   0.01845
    5 S1      .Z        0.00000   0.00000   0.00000  -0.00000   0.00000
    6 S1      .S        0.00000   0.00000   0.00000  -0.00000   0.00000
    7 S1      .X        0.00000   0.00000   0.00000  -0.06285   0.00000
    8 S1      .Y       -0.06285  -0.06285  -0.06285   0.00000  -0.06285
    9 S1      .Z        0.00000  -0.00000   0.00000  -0.00000   0.00000
   10 S1      .S       -0.00000  -0.00000  -0.00000   0.00000  -0.00000
   11 S1      .X        0.00000   0.00000   0.00000   0.03315   0.00000
   12 S1      .Y        0.03315   0.03315   0.03315   0.00000   0.03315
   13 S1      .Z       -0.00000  -0.00000   0.00000  -0.00000  -0.00000
   14 S1      .XX      -0.00000  -0.00000  -0.00000   0.00000  -0.00000
   15 S1      .YY      -0.00000  -0.00000  -0.00000   0.00000  -0.00000
   16 S1      .ZZ      -0.00000  -0.00000  -0.00000   0.00000  -0.00000
   17 S1      .XY      -0.00108   0.00108  -0.00000   0.00000  -0.00000
   18 S1      .XZ      -0.00000  -0.00000  -0.00000   0.00108   0.00000
   19 S1      .YZ       0.00000   0.00000  -0.00108  -0.00000   0.00108
   20 F2      .S       -0.00000  -0.00000   0.00000   0.00000  -0.00000
   21 F2      .S       -0.00000  -0.00000  -0.00000   0.00000  -0.00000
   22 F2      .X       -0.00000  -0.00000   0.00000   0.68031   0.00000
   23 F2      .Y        0.00327   0.00327   0.00618   0.00000   0.68031
   24 F2      .Z       -0.00000  -0.00000  -0.00000   0.00000  -0.00000
   25 F2      .S        0.00000   0.00000   0.00000  -0.00000   0.00000
   26 F2      .X        0.00000  -0.00000   0.00000   0.47168  -0.00000
   27 F2      .Y       -0.00693  -0.00693  -0.00468  -0.00000   0.47168
   28 F2      .Z       -0.00000  -0.00000  -0.00000   0.00000  -0.00000
   29 F2      .XX      -0.00000  -0.00000  -0.00000   0.00000  -0.00000
   30 F2      .YY      -0.00000  -0.00000  -0.00000   0.00000  -0.00000
   31 F2      .ZZ      -0.00000  -0.00000  -0.00000   0.00000  -0.00000
   32 F2      .XY      -0.00031   0.00031  -0.00000   0.00000  -0.00000
   33 F2      .XZ       0.00000  -0.00000  -0.00000  -0.03129   0.00000
   34 F2      .YZ       0.00115   0.00115   0.00119  -0.00000  -0.03129
   35 F3      .S        0.00500   0.00500   0.00500   0.00000   0.00500
   36 F3      .S        0.03855   0.03855   0.03855   0.00000   0.03855
   37 F3      .X        0.01423  -0.01423   0.00000   0.00327  -0.00000
   38 F3      .Y       -0.00054  -0.00054  -0.00054   0.00000  -0.00054
   39 F3      .Z       -0.00000   0.00000   0.01423  -0.00000  -0.01423
   40 F3      .S       -0.10181  -0.10181  -0.10181  -0.00000  -0.10181
   41 F3      .X        0.00800  -0.00800  -0.00000  -0.00693  -0.00000
   42 F3      .Y        0.00477   0.00477   0.00477   0.00000   0.00477
   43 F3      .Z       -0.00000  -0.00000   0.00800  -0.00000  -0.00800
   44 F3      .XX       0.02340   0.02340   0.02192   0.00000   0.02192
   45 F3      .YY       0.02360   0.02360   0.02360   0.00000   0.02360
   46 F3      .ZZ       0.02192   0.02192   0.02340   0.00000   0.02340
   47 F3      .XY       0.00116  -0.00116  -0.00000   0.00115   0.00000
   48 F3      .XZ      -0.00000   0.00000   0.00000   0.00031  -0.00000
   49 F3      .YZ       0.00000  -0.00000   0.00116   0.00000  -0.00116
   50 F4      .S       -0.00000  -0.00000  -0.00000   0.00000  -0.00000
   51 F4      .S       -0.00000  -0.00000  -0.00000   0.00000  -0.00000
   52 F4      .X       -0.00000   0.00000  -0.00000   0.00618  -0.00000
   53 F4      .Y        0.00327   0.00327   0.68031  -0.00000   0.00618
   54 F4      .Z        0.00000  -0.00000  -0.00000  -0.00000   0.00000
   55 F4      .S        0.00000   0.00000   0.00000  -0.00000   0.00000
   56 F4      .X       -0.00000   0.00000  -0.00000  -0.00468  -0.00000
   57 F4      .Y       -0.00693  -0.00693   0.47168  -0.00000  -0.00468
   58 F4      .Z        0.00000   0.00000   0.00000  -0.00000   0.00000
   59 F4      .XX      -0.00000  -0.00000  -0.00000   0.00000  -0.00000
   60 F4      .YY      -0.00000  -0.00000  -0.00000   0.00000  -0.00000
   61 F4      .ZZ      -0.00000  -0.00000  -0.00000   0.00000  -0.00000
   62 F4      .XY      -0.00031   0.00031  -0.00000  -0.00000  -0.00000
   63 F4      .XZ      -0.00000  -0.00000  -0.00000  -0.00119  -0.00000
   64 F4      .YZ      -0.00115  -0.00115   0.03129  -0.00000  -0.00119
   65 F5      .S       -0.00500  -0.00500  -0.00500   0.00000  -0.00500
   66 F5      .S       -0.03855  -0.03855  -0.03855   0.00000  -0.03855
   67 F5      .X       -0.01423   0.01423   0.00000   0.00327   0.00000
   68 F5      .Y       -0.00054  -0.00054  -0.00054  -0.00000  -0.00054
   69 F5      .Z        0.00000  -0.00000  -0.01423  -0.00000   0.01423
   70 F5      .S        0.10181   0.10181   0.10181  -0.00000   0.10181
   71 F5      .X       -0.00800   0.00800   0.00000  -0.00693  -0.00000
   72 F5      .Y        0.00477   0.00477   0.00477  -0.00000   0.00477
   73 F5      .Z       -0.00000  -0.00000  -0.00800   0.00000   0.00800
   74 F5      .XX      -0.02340  -0.02340  -0.02192   0.00000  -0.02192
   75 F5      .YY      -0.02360  -0.02360  -0.02360   0.00000  -0.02360
   76 F5      .ZZ      -0.02192  -0.02192  -0.02340   0.00000  -0.02340
   77 F5      .XY       0.00116  -0.00116   0.00000  -0.00115   0.00000
   78 F5      .XZ      -0.00000   0.00000  -0.00000   0.00031   0.00000
   79 F5      .YZ       0.00000   0.00000   0.00116   0.00000  -0.00116
   80 F6      .S       -0.00000  -0.00000  -0.00000   0.00500  -0.00000
   81 F6      .S       -0.00000  -0.00000  -0.00000   0.03855  -0.00000
   82 F6      .X       -0.00000   0.00000  -0.00000  -0.00054  -0.00000
   83 F6      .Y        0.00618   0.68031   0.00327   0.00000   0.00327
   84 F6      .Z        0.00000   0.00000  -0.00000  -0.01423  -0.00000
   85 F6      .S        0.00000   0.00000   0.00000  -0.10181   0.00000
   86 F6      .X       -0.00000  -0.00000  -0.00000   0.00477  -0.00000
   87 F6      .Y       -0.00468   0.47168  -0.00693   0.00000  -0.00693
   88 F6      .Z        0.00000   0.00000  -0.00000  -0.00800  -0.00000
   89 F6      .XX      -0.00000  -0.00000  -0.00000   0.02360  -0.00000
   90 F6      .YY      -0.00000  -0.00000  -0.00000   0.02192  -0.00000
   91 F6      .ZZ      -0.00000  -0.00000  -0.00000   0.02340  -0.00000
   92 F6      .XY       0.00119  -0.03129   0.00115  -0.00000   0.00115
   93 F6      .XZ       0.00000  -0.00000  -0.00000  -0.00116  -0.00000
   94 F6      .YZ      -0.00000  -0.00000  -0.00031  -0.00000   0.00031
   95 F7      .S       -0.00000  -0.00000   0.00000  -0.00500  -0.00000
   96 F7      .S       -0.00000  -0.00000  -0.00000  -0.03855  -0.00000
   97 F7      .X        0.00000   0.00000   0.00000  -0.00054   0.00000
   98 F7      .Y        0.68031   0.00618   0.00327  -0.00000   0.00327
   99 F7      .Z        0.00000   0.00000  -0.00000   0.01423  -0.00000
  100 F7      .S        0.00000   0.00000   0.00000   0.10181   0.00000
  101 F7      .X        0.00000   0.00000   0.00000   0.00477   0.00000
  102 F7      .Y        0.47168  -0.00468  -0.00693  -0.00000  -0.00693
  103 F7      .Z        0.00000   0.00000  -0.00000   0.00800  -0.00000
  104 F7      .XX      -0.00000  -0.00000  -0.00000  -0.02360  -0.00000
  105 F7      .YY      -0.00000  -0.00000  -0.00000  -0.02192  -0.00000
  106 F7      .ZZ      -0.00000  -0.00000  -0.00000  -0.02340  -0.00000
  107 F7      .XY       0.03129  -0.00119  -0.00115  -0.00000  -0.00115
  108 F7      .XZ      -0.00000  -0.00000  -0.00000  -0.00116   0.00000
  109 F7      .YZ      -0.00000   0.00000  -0.00031   0.00000   0.00031
                          31        32        33        34        35
                           O         O         O         O         O    
     Eigenvalues --   -12.82024 -12.82024 -12.82024 -12.82024 -12.82024
    1 S1      .S       -0.00000  -0.00000  -0.00000  -0.00000  -0.00000
    2 S1      .S       -0.00000  -0.00000  -0.00000  -0.00000  -0.00000
    3 S1      .X        0.01845  -0.00000  -0.00000   0.00000  -0.00000
    4 S1      .Y        0.00000  -0.00000   0.00000   0.00000   0.00000
    5 S1      .Z       -0.00000   0.01845   0.01845   0.01845   0.01845
    6 S1      .S       -0.00000  -0.00000  -0.00000  -0.00000  -0.00000
    7 S1      .X       -0.06285   0.00000   0.00000   0.00000   0.00000
    8 S1      .Y        0.00000   0.00000  -0.00000  -0.00000   0.00000
    9 S1      .Z        0.00000  -0.06285  -0.06285  -0.06285  -0.06285
   10 S1      .S        0.00000   0.00000   0.00000   0.00000   0.00000
   11 S1      .X        0.03315  -0.00000  -0.00000   0.00000   0.00000
   12 S1      .Y        0.00000  -0.00000  -0.00000  -0.00000   0.00000
   13 S1      .Z       -0.00000   0.03315   0.03315   0.03315   0.03315
   14 S1      .XX       0.00000   0.00000   0.00000   0.00000   0.00000
   15 S1      .YY       0.00000   0.00000   0.00000   0.00000   0.00000
   16 S1      .ZZ       0.00000   0.00000   0.00000   0.00000   0.00000
   17 S1      .XY       0.00000  -0.00000  -0.00000   0.00000   0.00000
   18 S1      .XZ      -0.00108  -0.00000  -0.00108  -0.00000   0.00108
   19 S1      .YZ      -0.00000   0.00108  -0.00000  -0.00108  -0.00000
   20 F2      .S        0.00000   0.00500   0.00500   0.00500   0.00500
   21 F2      .S        0.00000   0.03855   0.03855   0.03855   0.03855
   22 F2      .X        0.00618   0.00000   0.01423   0.00000  -0.01423
   23 F2      .Y        0.00000  -0.01423   0.00000   0.01423   0.00000
   24 F2      .Z        0.00000  -0.00054  -0.00054  -0.00054  -0.00054
   25 F2      .S       -0.00000  -0.10181  -0.10181  -0.10181  -0.10181
   26 F2      .X       -0.00468   0.00000   0.00800   0.00000  -0.00800
   27 F2      .Y        0.00000  -0.00800   0.00000   0.00800   0.00000
   28 F2      .Z        0.00000   0.00477   0.00477   0.00477   0.00477
   29 F2      .XX       0.00000   0.02192   0.02340   0.02192   0.02340
   30 F2      .YY       0.00000   0.02340   0.02192   0.02340   0.02192
   31 F2      .ZZ       0.00000   0.02360   0.02360   0.02360   0.02360
   32 F2      .XY      -0.00000   0.00000   0.00000   0.00000  -0.00000
   33 F2      .XZ       0.00119  -0.00000   0.00116  -0.00000  -0.00116
   34 F2      .YZ       0.00000  -0.00116  -0.00000   0.00116  -0.00000
   35 F3      .S        0.00000   0.00000   0.00000   0.00000   0.00000
   36 F3      .S        0.00000   0.00000   0.00000   0.00000   0.00000
   37 F3      .X        0.00327   0.00000  -0.00000  -0.00000   0.00000
   38 F3      .Y        0.00000   0.00000   0.00000   0.00000   0.00000
   39 F3      .Z       -0.00000   0.68031   0.00327   0.00618   0.00327
   40 F3      .S       -0.00000  -0.00000  -0.00000  -0.00000  -0.00000
   41 F3      .X       -0.00693   0.00000   0.00000  -0.00000   0.00000
   42 F3      .Y        0.00000   0.00000   0.00000   0.00000   0.00000
   43 F3      .Z       -0.00000   0.47168  -0.00693  -0.00468  -0.00693
   44 F3      .XX       0.00000   0.00000   0.00000   0.00000   0.00000
   45 F3      .YY       0.00000   0.00000   0.00000   0.00000   0.00000
   46 F3      .ZZ       0.00000   0.00000   0.00000   0.00000   0.00000
   47 F3      .XY       0.00115  -0.00000   0.00000  -0.00000   0.00000
   48 F3      .XZ      -0.00031   0.00000  -0.00031  -0.00000   0.00031
   49 F3      .YZ      -0.00000  -0.03129   0.00115   0.00119   0.00115
   50 F4      .S        0.00000  -0.00500  -0.00500  -0.00500  -0.00500
   51 F4      .S        0.00000  -0.03855  -0.03855  -0.03855  -0.03855
   52 F4      .X        0.68031   0.00000  -0.01423   0.00000   0.01423
   53 F4      .Y        0.00000   0.01423   0.00000  -0.01423   0.00000
   54 F4      .Z       -0.00000  -0.00054  -0.00054  -0.00054  -0.00054
   55 F4      .S       -0.00000   0.10181   0.10181   0.10181   0.10181
   56 F4      .X        0.47168   0.00000  -0.00800   0.00000   0.00800
   57 F4      .Y        0.00000   0.00800   0.00000  -0.00800   0.00000
   58 F4      .Z       -0.00000   0.00477   0.00477   0.00477   0.00477
   59 F4      .XX       0.00000  -0.02192  -0.02340  -0.02192  -0.02340
   60 F4      .YY       0.00000  -0.02340  -0.02192  -0.02340  -0.02192
   61 F4      .ZZ       0.00000  -0.02360  -0.02360  -0.02360  -0.02360
   62 F4      .XY      -0.00000  -0.00000   0.00000  -0.00000  -0.00000
   63 F4      .XZ       0.03129   0.00000   0.00116  -0.00000  -0.00116
   64 F4      .YZ       0.00000  -0.00116   0.00000   0.00116   0.00000
   65 F5      .S        0.00000   0.00000   0.00000   0.00000   0.00000
   66 F5      .S        0.00000   0.00000   0.00000   0.00000   0.00000
   67 F5      .X        0.00327   0.00000  -0.00000   0.00000  -0.00000
   68 F5      .Y       -0.00000  -0.00000  -0.00000  -0.00000  -0.00000
   69 F5      .Z       -0.00000   0.00618   0.00327   0.68031   0.00327
   70 F5      .S       -0.00000  -0.00000  -0.00000  -0.00000  -0.00000
   71 F5      .X       -0.00693   0.00000  -0.00000   0.00000  -0.00000
   72 F5      .Y       -0.00000  -0.00000  -0.00000  -0.00000  -0.00000
   73 F5      .Z       -0.00000  -0.00468  -0.00693   0.47168  -0.00693
   74 F5      .XX       0.00000   0.00000   0.00000   0.00000   0.00000
   75 F5      .YY       0.00000   0.00000   0.00000   0.00000   0.00000
   76 F5      .ZZ       0.00000   0.00000   0.00000   0.00000   0.00000
   77 F5      .XY      -0.00115  -0.00000   0.00000   0.00000  -0.00000
   78 F5      .XZ      -0.00031   0.00000  -0.00031  -0.00000   0.00031
   79 F5      .YZ      -0.00000  -0.00119  -0.00115   0.03129  -0.00115
   80 F6      .S        0.00500   0.00000  -0.00000   0.00000   0.00000
   81 F6      .S        0.03855   0.00000   0.00000   0.00000   0.00000
   82 F6      .X       -0.00054   0.00000   0.00000   0.00000   0.00000
   83 F6      .Y       -0.00000   0.00000  -0.00000   0.00000  -0.00000
   84 F6      .Z        0.01423   0.00327   0.00618   0.00327   0.68031
   85 F6      .S       -0.10181  -0.00000  -0.00000  -0.00000  -0.00000
   86 F6      .X        0.00477   0.00000   0.00000   0.00000   0.00000
   87 F6      .Y       -0.00000   0.00000  -0.00000   0.00000  -0.00000
   88 F6      .Z        0.00800  -0.00693  -0.00468  -0.00693   0.47168
   89 F6      .XX       0.02360   0.00000   0.00000   0.00000   0.00000
   90 F6      .YY       0.02192   0.00000   0.00000   0.00000   0.00000
   91 F6      .ZZ       0.02340   0.00000   0.00000   0.00000   0.00000
   92 F6      .XY       0.00000  -0.00000   0.00000  -0.00000   0.00000
   93 F6      .XZ       0.00116   0.00115   0.00119   0.00115  -0.03129
   94 F6      .YZ       0.00000   0.00031   0.00000  -0.00031  -0.00000
   95 F7      .S       -0.00500   0.00000   0.00000   0.00000   0.00000
   96 F7      .S       -0.03855   0.00000   0.00000   0.00000   0.00000
   97 F7      .X       -0.00054  -0.00000  -0.00000  -0.00000  -0.00000
   98 F7      .Y        0.00000   0.00000  -0.00000   0.00000  -0.00000
   99 F7      .Z       -0.01423   0.00327   0.68031   0.00327   0.00618
  100 F7      .S        0.10181  -0.00000  -0.00000  -0.00000  -0.00000
  101 F7      .X        0.00477  -0.00000  -0.00000  -0.00000  -0.00000
  102 F7      .Y        0.00000   0.00000  -0.00000  -0.00000  -0.00000
  103 F7      .Z       -0.00800  -0.00693   0.47168  -0.00693  -0.00468
  104 F7      .XX      -0.02360   0.00000   0.00000   0.00000   0.00000
  105 F7      .YY      -0.02192   0.00000   0.00000   0.00000   0.00000
  106 F7      .ZZ      -0.02340   0.00000   0.00000   0.00000   0.00000
  107 F7      .XY       0.00000   0.00000  -0.00000   0.00000  -0.00000
  108 F7      .XZ       0.00116  -0.00115   0.03129  -0.00115  -0.00119
  109 F7      .YZ       0.00000   0.00031  -0.00000  -0.00031   0.00000
                          36        37        38        39        40
                           V         V         V         V         V    
     Eigenvalues --     6.99534   6.99534   6.99534   6.99534   6.99534
    1 S1      .S        0.03766  -0.03766  -0.03766   0.03766  -0.03766
    2 S1      .S       -0.12793   0.12793   0.12793  -0.12793   0.12793
    3 S1      .X        0.23676  -0.00000   0.23676   0.00000  -0.00000
    4 S1      .Y       -0.00000   0.23676   0.00000   0.23676   0.00000
    5 S1      .Z       -0.00000  -0.00000  -0.00000  -0.00000   0.23676
    6 S1      .S        0.57840  -0.57840  -0.57840   0.57840  -0.57840
    7 S1      .X       -0.80921   0.00000  -0.80921  -0.00000   0.00000
    8 S1      .Y        0.00000  -0.80921  -0.00000  -0.80921  -0.00000
    9 S1      .Z       -0.00000   0.00000   0.00000  -0.00000  -0.80921
   10 S1      .S       -0.17777   0.17777   0.17777  -0.17777   0.17777
   11 S1      .X       -0.04695   0.00000  -0.04695  -0.00000   0.00000
   12 S1      .Y        0.00000  -0.04695  -0.00000  -0.04695  -0.00000
   13 S1      .Z       -0.00000   0.00000   0.00000  -0.00000  -0.04695
   14 S1      .XX       0.60928   0.30307  -0.60928  -0.30307   0.30307
   15 S1      .YY      -0.30307  -0.60928   0.30307   0.60928   0.30307
   16 S1      .ZZ      -0.30307   0.30307   0.30307  -0.30307  -0.60928
   17 S1      .XY       0.00000  -0.00000  -0.00000   0.00000  -0.00000
   18 S1      .XZ       0.00000   0.00000  -0.00000   0.00000   0.00000
   19 S1      .YZ      -0.00000  -0.00000  -0.00000   0.00000  -0.00000
   20 F2      .S       -0.01369   0.01369   0.01369  -0.01369  -0.05903
   21 F2      .S       -0.05641   0.05641   0.05641  -0.05641   0.30596
   22 F2      .X        0.02215  -0.00000   0.02215   0.00000  -0.00000
   23 F2      .Y       -0.00000   0.02215   0.00000   0.02215   0.00000
   24 F2      .Z       -0.01884   0.01884   0.01884  -0.01884  -0.51417
   25 F2      .S        0.21529  -0.21529  -0.21529   0.21529   0.02068
   26 F2      .X        0.01691  -0.00000   0.01691   0.00000  -0.00000
   27 F2      .Y       -0.00000   0.01691   0.00000   0.01691   0.00000
   28 F2      .Z       -0.02105   0.02105   0.02105  -0.02105  -0.38536
   29 F2      .XX      -0.04621   0.04521   0.04621  -0.04521   0.04792
   30 F2      .YY      -0.04521   0.04621   0.04521  -0.04621   0.04792
   31 F2      .ZZ      -0.04627   0.04627   0.04627  -0.04627   0.07175
   32 F2      .XY       0.00000   0.00000   0.00000  -0.00000   0.00000
   33 F2      .XZ       0.00002   0.00000   0.00002  -0.00000   0.00000
   34 F2      .YZ       0.00000   0.00002  -0.00000   0.00002  -0.00000
   35 F3      .S       -0.01369  -0.05903   0.01369   0.01255   0.01369
   36 F3      .S       -0.05641   0.30596   0.05641   0.08141   0.05641
   37 F3      .X        0.02215  -0.00000   0.02215   0.00000  -0.00000
   38 F3      .Y       -0.01884  -0.51417   0.01884   0.02501   0.01884
   39 F3      .Z        0.00000  -0.00000  -0.00000   0.00000   0.02215
   40 F3      .S        0.21529   0.02068  -0.21529  -0.19230  -0.21529
   41 F3      .X        0.01691  -0.00000   0.01691   0.00000  -0.00000
   42 F3      .Y       -0.02105  -0.38536   0.02105   0.02110   0.02105
   43 F3      .Z        0.00000  -0.00000  -0.00000   0.00000   0.01691
   44 F3      .XX      -0.04621   0.04792   0.04621   0.04877   0.04521
   45 F3      .YY      -0.04627   0.07175   0.04627   0.04831   0.04627
   46 F3      .ZZ      -0.04521   0.04792   0.04521   0.04877   0.04621
   47 F3      .XY       0.00002   0.00000   0.00002   0.00000   0.00000
   48 F3      .XZ       0.00000  -0.00000  -0.00000  -0.00000  -0.00000
   49 F3      .YZ      -0.00000  -0.00000   0.00000  -0.00000   0.00002
   50 F4      .S       -0.01369   0.01369   0.01369  -0.01369  -0.01255
   51 F4      .S       -0.05641   0.05641   0.05641  -0.05641  -0.08141
   52 F4      .X        0.02215  -0.00000   0.02215   0.00000  -0.00000
   53 F4      .Y       -0.00000   0.02215   0.00000   0.02215   0.00000
   54 F4      .Z        0.01884  -0.01884  -0.01884   0.01884   0.02501
   55 F4      .S        0.21529  -0.21529  -0.21529   0.21529   0.19230
   56 F4      .X        0.01691  -0.00000   0.01691   0.00000  -0.00000
   57 F4      .Y       -0.00000   0.01691   0.00000   0.01691   0.00000
   58 F4      .Z        0.02105  -0.02105  -0.02105   0.02105   0.02110
   59 F4      .XX      -0.04621   0.04521   0.04621  -0.04521  -0.04877
   60 F4      .YY      -0.04521   0.04621   0.04521  -0.04621  -0.04877
   61 F4      .ZZ      -0.04627   0.04627   0.04627  -0.04627  -0.04831
   62 F4      .XY       0.00000   0.00000   0.00000  -0.00000  -0.00000
   63 F4      .XZ      -0.00002  -0.00000  -0.00002   0.00000  -0.00000
   64 F4      .YZ      -0.00000  -0.00002  -0.00000  -0.00002   0.00000
   65 F5      .S       -0.01369  -0.01255   0.01369   0.05903   0.01369
   66 F5      .S       -0.05641  -0.08141   0.05641  -0.30596   0.05641
   67 F5      .X        0.02215  -0.00000   0.02215   0.00000  -0.00000
   68 F5      .Y        0.01884   0.02501  -0.01884  -0.51417  -0.01884
   69 F5      .Z        0.00000  -0.00000  -0.00000   0.00000   0.02215
   70 F5      .S        0.21529   0.19230  -0.21529  -0.02068  -0.21529
   71 F5      .X        0.01691  -0.00000   0.01691   0.00000  -0.00000
   72 F5      .Y        0.02105   0.02110  -0.02105  -0.38536  -0.02105
   73 F5      .Z        0.00000  -0.00000  -0.00000   0.00000   0.01691
   74 F5      .XX      -0.04621  -0.04877   0.04621  -0.04792   0.04521
   75 F5      .YY      -0.04627  -0.04831   0.04627  -0.07175   0.04627
   76 F5      .ZZ      -0.04521  -0.04877   0.04521  -0.04792   0.04621
   77 F5      .XY      -0.00002  -0.00000  -0.00002   0.00000  -0.00000
   78 F5      .XZ       0.00000  -0.00000   0.00000  -0.00000  -0.00000
   79 F5      .YZ       0.00000  -0.00000   0.00000   0.00000  -0.00002
   80 F6      .S        0.01255   0.01369  -0.05903  -0.01369   0.01369
   81 F6      .S        0.08141   0.05641   0.30596  -0.05641   0.05641
   82 F6      .X        0.02501   0.01884  -0.51417  -0.01884   0.01884
   83 F6      .Y       -0.00000   0.02215   0.00000   0.02215   0.00000
   84 F6      .Z        0.00000  -0.00000  -0.00000   0.00000   0.02215
   85 F6      .S       -0.19230  -0.21529   0.02068   0.21529  -0.21529
   86 F6      .X        0.02110   0.02105  -0.38536  -0.02105   0.02105
   87 F6      .Y       -0.00000   0.01691   0.00000   0.01691   0.00000
   88 F6      .Z        0.00000  -0.00000  -0.00000   0.00000   0.01691
   89 F6      .XX       0.04831   0.04627   0.07175  -0.04627   0.04627
   90 F6      .YY       0.04877   0.04621   0.04792  -0.04621   0.04521
   91 F6      .ZZ       0.04877   0.04521   0.04792  -0.04521   0.04621
   92 F6      .XY       0.00000   0.00002  -0.00000   0.00002   0.00000
   93 F6      .XZ      -0.00000   0.00000  -0.00000  -0.00000   0.00002
   94 F6      .YZ       0.00000  -0.00000   0.00000   0.00000   0.00000
   95 F7      .S        0.05903   0.01369  -0.01255  -0.01369   0.01369
   96 F7      .S       -0.30596   0.05641  -0.08141  -0.05641   0.05641
   97 F7      .X       -0.51417  -0.01884   0.02501   0.01884  -0.01884
   98 F7      .Y       -0.00000   0.02215   0.00000   0.02215   0.00000
   99 F7      .Z        0.00000  -0.00000  -0.00000   0.00000   0.02215
  100 F7      .S       -0.02068  -0.21529   0.19230   0.21529  -0.21529
  101 F7      .X       -0.38536  -0.02105   0.02110   0.02105  -0.02105
  102 F7      .Y       -0.00000   0.01691   0.00000   0.01691   0.00000
  103 F7      .Z        0.00000  -0.00000  -0.00000   0.00000   0.01691
  104 F7      .XX      -0.07175   0.04627  -0.04831  -0.04627   0.04627
  105 F7      .YY      -0.04792   0.04621  -0.04877  -0.04621   0.04521
  106 F7      .ZZ      -0.04792   0.04521  -0.04877  -0.04521   0.04621
  107 F7      .XY      -0.00000  -0.00002  -0.00000  -0.00002   0.00000
  108 F7      .XZ       0.00000  -0.00000   0.00000   0.00000  -0.00002
  109 F7      .YZ       0.00000  -0.00000   0.00000  -0.00000   0.00000
                          41        42        43        44        45
                           V         V         V         V         V    
     Eigenvalues --     6.99534  10.69802  10.69802  10.69802  16.17063
    1 S1      .S        0.03766  -0.00000  -0.00000   0.00000  -0.00000
    2 S1      .S       -0.12793  -0.00000   0.00000  -0.00000  -0.00000
    3 S1      .X        0.00000   0.00000  -0.00000   0.17234   0.00000
    4 S1      .Y       -0.00000   0.00000   0.17234   0.00000  -0.00000
    5 S1      .Z        0.23676   0.17234  -0.00000  -0.00000  -0.00000
    6 S1      .S        0.57840  -0.00000  -0.00000   0.00000  -0.00000
    7 S1      .X       -0.00000  -0.00000   0.00000  -0.88313  -0.00000
    8 S1      .Y        0.00000   0.00000  -0.88313  -0.00000   0.00000
    9 S1      .Z       -0.80921  -0.88313   0.00000   0.00000   0.00000
   10 S1      .S       -0.17777   0.00000   0.00000  -0.00000   0.00000
   11 S1      .X       -0.00000   0.00000  -0.00000   2.06391  -0.00000
   12 S1      .Y        0.00000   0.00000   2.06391  -0.00000   0.00000
   13 S1      .Z       -0.04695   2.06391   0.00000   0.00000  -0.00000
   14 S1      .XX      -0.30307   0.00000   0.00000   0.00000   0.00000
   15 S1      .YY      -0.30307   0.00000  -0.00000  -0.00000   0.00000
   16 S1      .ZZ       0.60928   0.00000   0.00000  -0.00000  -0.00000
   17 S1      .XY       0.00000   0.00000  -0.00000   0.00000   1.03039
   18 S1      .XZ       0.00000  -0.00000  -0.00000   0.00000  -0.00000
   19 S1      .YZ       0.00000  -0.00000  -0.00000  -0.00000   0.00000
   20 F2      .S        0.01255   0.08293   0.00000  -0.00000  -0.00000
   21 F2      .S        0.08141  -0.04368   0.00000  -0.00000  -0.00000
   22 F2      .X        0.00000   0.00000   0.00000  -0.14717  -0.00000
   23 F2      .Y       -0.00000   0.00000  -0.14717  -0.00000   0.00000
   24 F2      .Z        0.02501  -0.02389   0.00000  -0.00000   0.00000
   25 F2      .S       -0.19230  -0.97448  -0.00000   0.00000   0.00000
   26 F2      .X        0.00000  -0.00000  -0.00000  -0.12981   0.00000
   27 F2      .Y       -0.00000  -0.00000  -0.12981   0.00000  -0.00000
   28 F2      .Z        0.02110  -0.02107   0.00000  -0.00000  -0.00000
   29 F2      .XX       0.04877   0.15457   0.00000  -0.00000  -0.00000
   30 F2      .YY       0.04877   0.15457   0.00000  -0.00000  -0.00000
   31 F2      .ZZ       0.04831   0.15457   0.00000  -0.00000   0.00000
   32 F2      .XY      -0.00000   0.00000  -0.00000  -0.00000  -0.00000
   33 F2      .XZ      -0.00000   0.00000   0.00000   0.00000  -0.00000
   34 F2      .YZ       0.00000   0.00000  -0.00000  -0.00000   0.00000
   35 F3      .S       -0.01369   0.00000   0.08293  -0.00000   0.00000
   36 F3      .S       -0.05641   0.00000  -0.04368  -0.00000   0.00000
   37 F3      .X        0.00000   0.00000  -0.00000  -0.14717  -0.07295
   38 F3      .Y       -0.01884   0.00000  -0.02389  -0.00000   0.00000
   39 F3      .Z        0.02215  -0.14717   0.00000   0.00000   0.00000
   40 F3      .S        0.21529  -0.00000  -0.97448   0.00000  -0.00000
   41 F3      .X        0.00000  -0.00000   0.00000  -0.12981  -0.06434
   42 F3      .Y       -0.02105   0.00000  -0.02107  -0.00000   0.00000
   43 F3      .Z        0.01691  -0.12981  -0.00000  -0.00000   0.00000
   44 F3      .XX      -0.04521   0.00000   0.15457  -0.00000   0.00000
   45 F3      .YY      -0.04627   0.00000   0.15457  -0.00000   0.00000
   46 F3      .ZZ      -0.04621   0.00000   0.15457  -0.00000   0.00000
   47 F3      .XY      -0.00000   0.00000  -0.00000  -0.00000   0.00000
   48 F3      .XZ      -0.00000  -0.00000   0.00000   0.00000   0.00000
   49 F3      .YZ       0.00002  -0.00000   0.00000   0.00000   0.00000
   50 F4      .S        0.05903  -0.08293   0.00000  -0.00000   0.00000
   51 F4      .S       -0.30596   0.04368   0.00000  -0.00000   0.00000
   52 F4      .X        0.00000   0.00000  -0.00000  -0.14717  -0.00000
   53 F4      .Y       -0.00000   0.00000  -0.14717  -0.00000  -0.00000
   54 F4      .Z       -0.51417  -0.02389  -0.00000   0.00000  -0.00000
   55 F4      .S       -0.02068   0.97448  -0.00000   0.00000  -0.00000
   56 F4      .X        0.00000  -0.00000   0.00000  -0.12981   0.00000
   57 F4      .Y       -0.00000  -0.00000  -0.12981   0.00000  -0.00000
   58 F4      .Z       -0.38536  -0.02107  -0.00000   0.00000   0.00000
   59 F4      .XX      -0.04792  -0.15457   0.00000  -0.00000   0.00000
   60 F4      .YY      -0.04792  -0.15457   0.00000  -0.00000   0.00000
   61 F4      .ZZ      -0.07175  -0.15457   0.00000  -0.00000   0.00000
   62 F4      .XY      -0.00000  -0.00000  -0.00000  -0.00000  -0.00000
   63 F4      .XZ       0.00000  -0.00000   0.00000   0.00000   0.00000
   64 F4      .YZ       0.00000   0.00000   0.00000   0.00000   0.00000
   65 F5      .S       -0.01369   0.00000  -0.08293  -0.00000  -0.00000
   66 F5      .S       -0.05641   0.00000   0.04368  -0.00000  -0.00000
   67 F5      .X        0.00000   0.00000  -0.00000  -0.14717   0.07295
   68 F5      .Y        0.01884  -0.00000  -0.02389   0.00000   0.00000
   69 F5      .Z        0.02215  -0.14717   0.00000   0.00000  -0.00000
   70 F5      .S        0.21529  -0.00000   0.97448   0.00000   0.00000
   71 F5      .X        0.00000  -0.00000  -0.00000  -0.12981   0.06434
   72 F5      .Y        0.02105   0.00000  -0.02107   0.00000   0.00000
   73 F5      .Z        0.01691  -0.12981  -0.00000  -0.00000   0.00000
   74 F5      .XX      -0.04521   0.00000  -0.15457  -0.00000  -0.00000
   75 F5      .YY      -0.04627   0.00000  -0.15457  -0.00000  -0.00000
   76 F5      .ZZ      -0.04621   0.00000  -0.15457  -0.00000  -0.00000
   77 F5      .XY       0.00000  -0.00000   0.00000   0.00000   0.00000
   78 F5      .XZ      -0.00000   0.00000  -0.00000  -0.00000   0.00000
   79 F5      .YZ      -0.00002   0.00000  -0.00000  -0.00000   0.00000
   80 F6      .S       -0.01369   0.00000   0.00000   0.08293  -0.00000
   81 F6      .S       -0.05641   0.00000   0.00000  -0.04368  -0.00000
   82 F6      .X       -0.01884   0.00000   0.00000  -0.02389   0.00000
   83 F6      .Y       -0.00000   0.00000  -0.14717   0.00000  -0.07295
   84 F6      .Z        0.02215  -0.14717   0.00000   0.00000  -0.00000
   85 F6      .S        0.21529  -0.00000  -0.00000  -0.97448   0.00000
   86 F6      .X       -0.02105   0.00000   0.00000  -0.02107  -0.00000
   87 F6      .Y       -0.00000  -0.00000  -0.12981   0.00000  -0.06434
   88 F6      .Z        0.01691  -0.12981  -0.00000  -0.00000   0.00000
   89 F6      .XX      -0.04627   0.00000   0.00000   0.15457  -0.00000
   90 F6      .YY      -0.04521   0.00000   0.00000   0.15457  -0.00000
   91 F6      .ZZ      -0.04621   0.00000   0.00000   0.15457  -0.00000
   92 F6      .XY       0.00000   0.00000  -0.00000  -0.00000   0.00000
   93 F6      .XZ       0.00002  -0.00000   0.00000   0.00000   0.00000
   94 F6      .YZ       0.00000   0.00000  -0.00000  -0.00000  -0.00000
   95 F7      .S       -0.01369   0.00000   0.00000  -0.08293   0.00000
   96 F7      .S       -0.05641   0.00000   0.00000   0.04368   0.00000
   97 F7      .X        0.01884  -0.00000  -0.00000  -0.02389   0.00000
   98 F7      .Y       -0.00000  -0.00000  -0.14717   0.00000   0.07295
   99 F7      .Z        0.02215  -0.14717   0.00000   0.00000  -0.00000
  100 F7      .S        0.21529  -0.00000  -0.00000   0.97448  -0.00000
  101 F7      .X        0.02105  -0.00000  -0.00000  -0.02107  -0.00000
  102 F7      .Y       -0.00000  -0.00000  -0.12981   0.00000   0.06434
  103 F7      .Z        0.01691  -0.12981  -0.00000  -0.00000   0.00000
  104 F7      .XX      -0.04627   0.00000   0.00000  -0.15457   0.00000
  105 F7      .YY      -0.04521   0.00000   0.00000  -0.15457   0.00000
  106 F7      .ZZ      -0.04621   0.00000   0.00000  -0.15457   0.00000
  107 F7      .XY       0.00000   0.00000   0.00000   0.00000   0.00000
  108 F7      .XZ      -0.00002   0.00000  -0.00000  -0.00000  -0.00000
  109 F7      .YZ       0.00000   0.00000   0.00000  -0.00000   0.00000
                          46        47        48        49        50
                           V         V         V         V         V    
     Eigenvalues --    16.17063  16.17063  24.37565  42.60759  42.60759
    1 S1      .S       -0.00000  -0.00000  -0.09423   0.00000   0.00000
    2 S1      .S       -0.00000   0.00000   0.07527   0.00000   0.00000
    3 S1      .X        0.00000  -0.00000   0.00000   0.03090   0.03090
    4 S1      .Y       -0.00000   0.00000  -0.00000   0.00000   0.00000
    5 S1      .Z       -0.00000  -0.00000  -0.00000  -0.00000  -0.00000
    6 S1      .S       -0.00000  -0.00000  -3.50565   0.00000   0.00000
    7 S1      .X       -0.00000   0.00000  -0.00000  -0.07973  -0.07973
    8 S1      .Y        0.00000  -0.00000   0.00000  -0.00000  -0.00000
    9 S1      .Z        0.00000   0.00000   0.00000  -0.00000   0.00000
   10 S1      .S        0.00000  -0.00000   4.12753  -0.00000  -0.00000
   11 S1      .X        0.00000   0.00000  -0.00000  -1.50931  -1.50931
   12 S1      .Y        0.00000  -0.00000   0.00000  -0.00000   0.00000
   13 S1      .Z        0.00000   0.00000   0.00000   0.00000   0.00000
   14 S1      .XX       0.00000   0.00000   0.68650  -0.00000  -0.00000
   15 S1      .YY      -0.00000   0.00000   0.68650  -0.00000  -0.00000
   16 S1      .ZZ      -0.00000   0.00000   0.68650  -0.00000  -0.00000
   17 S1      .XY       0.00000  -0.00000   0.00000  -0.22428  -0.00000
   18 S1      .XZ       1.03039  -0.00000   0.00000   0.00000  -0.22428
   19 S1      .YZ       0.00000   1.03039   0.00000   0.00000   0.00000
   20 F2      .S        0.00000   0.00000   0.11304  -0.00000  -0.00000
   21 F2      .S        0.00000   0.00000   0.17904  -0.00000  -0.00000
   22 F2      .X       -0.07295   0.00000   0.00000   0.00773  -0.85820
   23 F2      .Y       -0.00000  -0.07295  -0.00000  -0.00000  -0.00000
   24 F2      .Z       -0.00000  -0.00000   0.12065  -0.00000  -0.00000
[...]
   41 F3      .X        0.00000  -0.00000  -0.00000  -0.00000  -0.00000
   42 F3      .Y       -1.08452   0.05367   0.69255   0.05367   0.12518
   43 F3      .Z        0.00000  -0.00895   0.00000   0.00895  -0.00000
   44 F3      .XX      -0.28002   0.04856  -1.30757   0.04856   0.23111
   45 F3      .YY      -0.51994   0.05732  -2.19800   0.05732   0.14866
   46 F3      .ZZ      -0.28002   0.05621  -1.30757   0.05621   0.23111
   47 F3      .XY      -0.00000   0.00000   0.00000   0.00000   0.00000
   48 F3      .XZ       0.00000  -0.00000   0.00000   0.00000   0.00000
   49 F3      .YZ      -0.00000   0.02068   0.00000  -0.02068   0.00000
   50 F4      .S       -0.09667   0.06689   0.00873  -0.35122   0.00873
   51 F4      .S       -0.43848   0.24958   0.13020  -1.32665   0.13020
   52 F4      .X        0.00000   0.00000   0.00000   0.00000   0.00000
   53 F4      .Y        0.05090  -0.00000   0.06079  -0.00000  -0.06079
   54 F4      .Z        0.04183  -0.03626   0.02855   0.46397   0.02855
   55 F4      .S        1.74379  -1.09261  -0.28595   4.72532  -0.28595
   56 F4      .X        0.00000  -0.00000  -0.00000  -0.00000  -0.00000
   57 F4      .Y        0.14846   0.00000  -0.00895   0.00000   0.00895
   58 F4      .Z        0.17405  -0.12518  -0.05367  -0.69255  -0.05367
   59 F4      .XX      -0.34857   0.23111   0.04856  -1.30757   0.04856
   60 F4      .YY      -0.34880   0.23111   0.05621  -1.30757   0.05621
   61 F4      .ZZ      -0.35080   0.14866   0.05732  -2.19800   0.05732
   62 F4      .XY      -0.00000  -0.00000   0.00000   0.00000   0.00000
   63 F4      .XZ       0.00000  -0.00000  -0.00000  -0.00000  -0.00000
   64 F4      .YZ       0.02159  -0.00000  -0.02068   0.00000   0.02068
   65 F5      .S        0.03431   0.00873   0.06689   0.00873  -0.35122
   66 F5      .S        0.11307   0.13020   0.24958   0.13020  -1.32665
   67 F5      .X        0.00000   0.00000   0.00000   0.00000   0.00000
   68 F5      .Y       -0.00498   0.02855  -0.03626   0.02855   0.46397
   69 F5      .Z        0.00000   0.06079   0.00000  -0.06079   0.00000
   70 F5      .S       -0.52068  -0.28595  -1.09261  -0.28595   4.72532
   71 F5      .X        0.00000  -0.00000  -0.00000  -0.00000  -0.00000
   72 F5      .Y        0.05611  -0.05367  -0.12518  -0.05367  -0.69255
   73 F5      .Z        0.00000  -0.00895   0.00000   0.00895  -0.00000
   74 F5      .XX       0.11949   0.04856   0.23111   0.04856  -1.30757
   75 F5      .YY       0.15201   0.05732   0.14866   0.05732  -2.19800
   76 F5      .ZZ       0.11949   0.05621   0.23111   0.05621  -1.30757
   77 F5      .XY       0.00000  -0.00000  -0.00000  -0.00000  -0.00000
   78 F5      .XZ      -0.00000   0.00000  -0.00000  -0.00000  -0.00000
   79 F5      .YZ       0.00000  -0.02068  -0.00000   0.02068  -0.00000
   80 F6      .S       -0.09667   0.00873   0.00873   0.00873   0.00873
   81 F6      .S       -0.43848   0.13020   0.13020   0.13020   0.13020
   82 F6      .X       -0.04183  -0.02855  -0.02855  -0.02855  -0.02855
   83 F6      .Y        0.05090  -0.00000   0.06079  -0.00000  -0.06079
   84 F6      .Z        0.00000   0.06079   0.00000  -0.06079   0.00000
   85 F6      .S        1.74379  -0.28595  -0.28595  -0.28595  -0.28595
   86 F6      .X       -0.17405   0.05367   0.05367   0.05367   0.05367
   87 F6      .Y        0.14846   0.00000  -0.00895   0.00000   0.00895
   88 F6      .Z        0.00000  -0.00895   0.00000   0.00895  -0.00000
   89 F6      .XX      -0.35080   0.05732   0.05732   0.05732   0.05732
   90 F6      .YY      -0.34880   0.04856   0.05621   0.04856   0.05621
   91 F6      .ZZ      -0.34857   0.05621   0.04856   0.05621   0.04856
   92 F6      .XY      -0.02159  -0.00000   0.02068  -0.00000  -0.02068
   93 F6      .XZ      -0.00000   0.02068   0.00000  -0.02068   0.00000
   94 F6      .YZ       0.00000   0.00000  -0.00000  -0.00000   0.00000
   95 F7      .S       -0.09667   0.00873   0.00873   0.00873   0.00873
   96 F7      .S       -0.43848   0.13020   0.13020   0.13020   0.13020
   97 F7      .X        0.04183   0.02855   0.02855   0.02855   0.02855
   98 F7      .Y        0.05090  -0.00000   0.06079  -0.00000  -0.06079
   99 F7      .Z        0.00000   0.06079   0.00000  -0.06079   0.00000
  100 F7      .S        1.74379  -0.28595  -0.28595  -0.28595  -0.28595
  101 F7      .X        0.17405  -0.05367  -0.05367  -0.05367  -0.05367
  102 F7      .Y        0.14846   0.00000  -0.00895  -0.00000   0.00895
  103 F7      .Z        0.00000  -0.00895   0.00000   0.00895  -0.00000
  104 F7      .XX      -0.35080   0.05732   0.05732   0.05732   0.05732
  105 F7      .YY      -0.34880   0.04856   0.05621   0.04856   0.05621
  106 F7      .ZZ      -0.34857   0.05621   0.04856   0.05621   0.04856
  107 F7      .XY       0.02159  -0.00000  -0.02068   0.00000   0.02068
  108 F7      .XZ       0.00000  -0.02068  -0.00000   0.02068  -0.00000
  109 F7      .YZ       0.00000  -0.00000  -0.00000  -0.00000   0.00000
                         101       102       103       104       105
                           V         V         V         V         V    
     Eigenvalues --  27211.395227211.395227211.395227211.395227211.3952
    1 S1      .S        0.01074   0.01074  -0.00967  -0.00967  -0.00967
    2 S1      .S       -0.04399  -0.04399  -0.05013  -0.05013  -0.05013
    3 S1      .X       -0.09335   0.09335   0.12167  -0.12167  -0.00000
    4 S1      .Y       -0.00000  -0.00000   0.00000   0.00000   0.12167
    5 S1      .Z        0.00000   0.00000  -0.00000  -0.00000  -0.00000
    6 S1      .S        0.09504   0.09504  -0.86958  -0.86958  -0.86958
    7 S1      .X        0.45646  -0.45646  -0.89344   0.89344   0.00000
    8 S1      .Y       -0.00000  -0.00000  -0.00000  -0.00000  -0.89344
    9 S1      .Z       -0.00000   0.00000   0.00000   0.00000   0.00000
   10 S1      .S        0.18428   0.18428   2.64864   2.64864   2.64864
   11 S1      .X       -0.82862   0.82862  -1.25002   1.25002   0.00000
   12 S1      .Y       -0.00000  -0.00000  -0.00000  -0.00000  -1.25002
   13 S1      .Z       -0.00000  -0.00000   0.00000   0.00000   0.00000
   14 S1      .XX       0.48305   0.48305   0.87368   0.87368   0.10678
   15 S1      .YY      -0.11037  -0.11037   0.10678   0.10678   0.87368
   16 S1      .ZZ      -0.11037  -0.11037   0.10678   0.10678   0.10678
   17 S1      .XY      -0.00000  -0.00000  -0.00000   0.00000   0.00000
   18 S1      .XZ      -0.00000   0.00000  -0.00000   0.00000   0.00000
   19 S1      .YZ       0.00000  -0.00000   0.00000  -0.00000   0.00000
   20 F2      .S        0.00873   0.00873   0.05364   0.05364   0.05364
   21 F2      .S        0.13020   0.13020   0.23513   0.23513   0.23513
   22 F2      .X        0.06079  -0.06079   0.03057  -0.03057  -0.00000
   23 F2      .Y       -0.00000  -0.00000   0.00000   0.00000   0.03057
   24 F2      .Z       -0.02855  -0.02855   0.03036   0.03036   0.03036
   25 F2      .S       -0.28595  -0.28595  -1.06462  -1.06462  -1.06462
   26 F2      .X       -0.00895   0.00895   0.05706  -0.05706  -0.00000
   27 F2      .Y        0.00000   0.00000   0.00000   0.00000   0.05706
   28 F2      .Z        0.05367   0.05367   0.08844   0.08844   0.08844
   29 F2      .XX       0.05621   0.05621   0.21300   0.21300   0.15487
   30 F2      .YY       0.04856   0.04856   0.15487   0.15487   0.21300
   31 F2      .ZZ       0.05732   0.05732   0.19759   0.19759   0.19759
   32 F2      .XY      -0.00000  -0.00000  -0.00000  -0.00000  -0.00000
   33 F2      .XZ       0.02068  -0.02068   0.00567  -0.00567   0.00000
   34 F2      .YZ      -0.00000  -0.00000  -0.00000  -0.00000   0.00567
   35 F3      .S        0.00873   0.00873   0.05364   0.05364  -0.02367
   36 F3      .S        0.13020   0.13020   0.23513   0.23513  -0.08904
   37 F3      .X        0.06079  -0.06079   0.03057  -0.03057  -0.00000
   38 F3      .Y       -0.02855  -0.02855   0.03036   0.03036  -0.00249
   39 F3      .Z        0.00000   0.00000  -0.00000  -0.00000  -0.00000
   40 F3      .S       -0.28595  -0.28595  -1.06462  -1.06462   0.39615
   41 F3      .X       -0.00895   0.00895   0.05706  -0.05706  -0.00000
   42 F3      .Y        0.05367   0.05367   0.08844   0.08844   0.06599
   43 F3      .Z        0.00000  -0.00000  -0.00000  -0.00000  -0.00000
   44 F3      .XX       0.05621   0.05621   0.21300   0.21300  -0.08564
   45 F3      .YY       0.05732   0.05732   0.19759   0.19759  -0.15572
   46 F3      .ZZ       0.04856   0.04856   0.15487   0.15487  -0.08564
   47 F3      .XY       0.02068  -0.02068   0.00567  -0.00567   0.00000
   48 F3      .XZ       0.00000  -0.00000  -0.00000  -0.00000  -0.00000
   49 F3      .YZ       0.00000   0.00000   0.00000   0.00000   0.00000
   50 F4      .S        0.00873   0.00873   0.05364   0.05364   0.05364
   51 F4      .S        0.13020   0.13020   0.23513   0.23513   0.23513
   52 F4      .X        0.06079  -0.06079   0.03057  -0.03057  -0.00000
   53 F4      .Y       -0.00000  -0.00000   0.00000   0.00000   0.03057
   54 F4      .Z        0.02855   0.02855  -0.03036  -0.03036  -0.03036
   55 F4      .S       -0.28595  -0.28595  -1.06462  -1.06462  -1.06462
   56 F4      .X       -0.00895   0.00895   0.05706  -0.05706  -0.00000
   57 F4      .Y        0.00000   0.00000   0.00000   0.00000   0.05706
   58 F4      .Z       -0.05367  -0.05367  -0.08844  -0.08844  -0.08844
   59 F4      .XX       0.05621   0.05621   0.21300   0.21300   0.15487
   60 F4      .YY       0.04856   0.04856   0.15487   0.15487   0.21300
   61 F4      .ZZ       0.05732   0.05732   0.19759   0.19759   0.19759
   62 F4      .XY       0.00000  -0.00000  -0.00000  -0.00000   0.00000
   63 F4      .XZ      -0.02068   0.02068  -0.00567   0.00567  -0.00000
   64 F4      .YZ      -0.00000   0.00000   0.00000   0.00000  -0.00567
   65 F5      .S        0.00873   0.00873   0.05364   0.05364   0.63357
   66 F5      .S        0.13020   0.13020   0.23513   0.23513   2.35305
   67 F5      .X        0.06079  -0.06079   0.03057  -0.03057  -0.00000
   68 F5      .Y        0.02855   0.02855  -0.03036  -0.03036   0.69807
   69 F5      .Z        0.00000   0.00000  -0.00000  -0.00000  -0.00000
   70 F5      .S       -0.28595  -0.28595  -1.06462  -1.06462  -8.93405
   71 F5      .X       -0.00895   0.00895   0.05706  -0.05706  -0.00000
   72 F5      .Y       -0.05367  -0.05367  -0.08844  -0.08844  -1.90219
   73 F5      .Z        0.00000   0.00000  -0.00000  -0.00000  -0.00000
   74 F5      .XX       0.05621   0.05621   0.21300   0.21300   2.74318
   75 F5      .YY       0.05732   0.05732   0.19759   0.19759   1.91190
   76 F5      .ZZ       0.04856   0.04856   0.15487   0.15487   2.74318
   77 F5      .XY      -0.02068   0.02068  -0.00567   0.00567  -0.00000
   78 F5      .XZ       0.00000   0.00000  -0.00000  -0.00000  -0.00000
   79 F5      .YZ      -0.00000  -0.00000  -0.00000  -0.00000  -0.00000
   80 F6      .S       -0.35122   0.06689  -0.02367   0.63357   0.05364
   81 F6      .S       -1.32665   0.24958  -0.08904   2.35305   0.23513
   82 F6      .X       -0.46397   0.03626  -0.00249  -0.69807   0.03036
   83 F6      .Y       -0.00000  -0.00000   0.00000   0.00000   0.03057
   84 F6      .Z        0.00000   0.00000  -0.00000  -0.00000  -0.00000
   85 F6      .S        4.72532  -1.09261   0.39615  -8.93405  -1.06462
   86 F6      .X        0.69255   0.12518   0.06599   1.90219   0.08844
   87 F6      .Y        0.00000   0.00000   0.00000   0.00000   0.05706
   88 F6      .Z        0.00000   0.00000  -0.00000  -0.00000  -0.00000
   89 F6      .XX      -2.19800   0.14866  -0.15572   1.91190   0.19759
   90 F6      .YY      -1.30757   0.23111  -0.08564   2.74318   0.21300
   91 F6      .ZZ      -1.30757   0.23111  -0.08564   2.74318   0.15487
   92 F6      .XY      -0.00000  -0.00000  -0.00000  -0.00000   0.00567
   93 F6      .XZ       0.00000   0.00000   0.00000   0.00000   0.00000
   94 F6      .YZ      -0.00000   0.00000   0.00000   0.00000   0.00000
   95 F7      .S        0.06689  -0.35122   0.63357  -0.02367   0.05364
   96 F7      .S        0.24958  -1.32665   2.35305  -0.08904   0.23513
   97 F7      .X       -0.03626   0.46397   0.69807   0.00249  -0.03036
   98 F7      .Y       -0.00000  -0.00000   0.00000   0.00000   0.03057
   99 F7      .Z        0.00000   0.00000  -0.00000  -0.00000  -0.00000
  100 F7      .S       -1.09261   4.72532  -8.93405   0.39615  -1.06462
  101 F7      .X       -0.12518  -0.69255  -1.90219  -0.06599  -0.08844
  102 F7      .Y        0.00000   0.00000   0.00000   0.00000   0.05706
  103 F7      .Z        0.00000  -0.00000  -0.00000  -0.00000  -0.00000
  104 F7      .XX       0.14866  -2.19800   1.91190  -0.15572   0.19759
  105 F7      .YY       0.23111  -1.30757   2.74318  -0.08564   0.21300
  106 F7      .ZZ       0.23111  -1.30757   2.74318  -0.08564   0.15487
  107 F7      .XY       0.00000   0.00000   0.00000   0.00000  -0.00567
  108 F7      .XZ      -0.00000  -0.00000  -0.00000  -0.00000  -0.00000
  109 F7      .YZ      -0.00000   0.00000   0.00000   0.00000  -0.00000
                         106       107       108       109
                           V         V         V         V    
     Eigenvalues --  27211.395227211.395227211.395227211.3952
    1 S1      .S       -0.00967  -0.00967  -0.00967   0.13581
    2 S1      .S       -0.05013  -0.05013  -0.05013  -0.90764
    3 S1      .X       -0.00000  -0.00000  -0.00000  -0.00000
    4 S1      .Y        0.00000  -0.12167   0.00000   0.00000
    5 S1      .Z        0.12167  -0.00000  -0.12167  -0.00000
    6 S1      .S       -0.86958  -0.86958  -0.86958   4.92527
    7 S1      .X        0.00000   0.00000   0.00000   0.00000
    8 S1      .Y       -0.00000   0.89344  -0.00000  -0.00000
    9 S1      .Z       -0.89344   0.00000   0.89344   0.00000
   10 S1      .S        2.64864   2.64864   2.64864   3.83172
   11 S1      .X        0.00000   0.00000   0.00000   0.00000
   12 S1      .Y       -0.00000   1.25002  -0.00000   0.00000
   13 S1      .Z       -1.25002   0.00000   1.25002   0.00000
   14 S1      .XX       0.10678   0.10678   0.10678  -2.68105
   15 S1      .YY       0.10678   0.87368   0.10678  -2.68105
   16 S1      .ZZ       0.87368   0.10678   0.87368  -2.68105
   17 S1      .XY       0.00000  -0.00000   0.00000   0.00000
   18 S1      .XZ       0.00000   0.00000  -0.00000  -0.00000
   19 S1      .YZ       0.00000   0.00000  -0.00000   0.00000
   20 F2      .S       -0.02367   0.05364   0.63357   0.13493
   21 F2      .S       -0.08904   0.23513   2.35305   0.64922
   22 F2      .X       -0.00000  -0.00000  -0.00000  -0.00000
   23 F2      .Y        0.00000  -0.03057   0.00000   0.00000
   24 F2      .Z       -0.00249   0.03036  -0.69807   0.02950
   25 F2      .S        0.39615  -1.06462  -8.93405  -2.56424
   26 F2      .X       -0.00000  -0.00000  -0.00000  -0.00000
   27 F2      .Y        0.00000  -0.05706   0.00000   0.00000
   28 F2      .Z        0.06599   0.08844   1.90219   0.17724
   29 F2      .XX      -0.08564   0.15487   2.74318   0.50075
   30 F2      .YY      -0.08564   0.21300   2.74318   0.50075
   31 F2      .ZZ      -0.15572   0.19759   1.91190   0.65740
   32 F2      .XY      -0.00000   0.00000   0.00000  -0.00000
   33 F2      .XZ       0.00000   0.00000   0.00000   0.00000
   34 F2      .YZ      -0.00000  -0.00567  -0.00000  -0.00000
   35 F3      .S        0.05364   0.63357   0.05364   0.13493
   36 F3      .S        0.23513   2.35305   0.23513   0.64922
   37 F3      .X       -0.00000  -0.00000  -0.00000  -0.00000
   38 F3      .Y        0.03036  -0.69807   0.03036   0.02950
   39 F3      .Z        0.03057  -0.00000  -0.03057  -0.00000
   40 F3      .S       -1.06462  -8.93405  -1.06462  -2.56424
   41 F3      .X       -0.00000  -0.00000  -0.00000  -0.00000
   42 F3      .Y        0.08844   1.90219   0.08844   0.17724
   43 F3      .Z        0.05706  -0.00000  -0.05706  -0.00000
   44 F3      .XX       0.15487   2.74318   0.15487   0.50075
   45 F3      .YY       0.19759   1.91190   0.19759   0.65740
   46 F3      .ZZ       0.21300   2.74318   0.21300   0.50075
   47 F3      .XY       0.00000   0.00000   0.00000   0.00000
   48 F3      .XZ      -0.00000   0.00000  -0.00000   0.00000
   49 F3      .YZ       0.00567   0.00000  -0.00567   0.00000
   50 F4      .S        0.63357   0.05364  -0.02367   0.13493
   51 F4      .S        2.35305   0.23513  -0.08904   0.64922
   52 F4      .X       -0.00000  -0.00000  -0.00000  -0.00000
   53 F4      .Y        0.00000  -0.03057   0.00000   0.00000
   54 F4      .Z        0.69807  -0.03036   0.00249  -0.02950
   55 F4      .S       -8.93405  -1.06462   0.39615  -2.56424
   56 F4      .X       -0.00000  -0.00000  -0.00000  -0.00000
   57 F4      .Y        0.00000  -0.05706   0.00000   0.00000
   58 F4      .Z       -1.90219  -0.08844  -0.06599  -0.17724
   59 F4      .XX       2.74318   0.15487  -0.08564   0.50075
   60 F4      .YY       2.74318   0.21300  -0.08564   0.50075
   61 F4      .ZZ       1.91190   0.19759  -0.15572   0.65740
   62 F4      .XY      -0.00000  -0.00000  -0.00000   0.00000
   63 F4      .XZ      -0.00000  -0.00000  -0.00000  -0.00000
   64 F4      .YZ       0.00000   0.00567   0.00000   0.00000
   65 F5      .S        0.05364  -0.02367   0.05364   0.13493
   66 F5      .S        0.23513  -0.08904   0.23513   0.64922
   67 F5      .X       -0.00000  -0.00000  -0.00000  -0.00000
   68 F5      .Y       -0.03036   0.00249  -0.03036  -0.02950
   69 F5      .Z        0.03057  -0.00000  -0.03057  -0.00000
   70 F5      .S       -1.06462   0.39615  -1.06462  -2.56424
   71 F5      .X       -0.00000  -0.00000  -0.00000  -0.00000
   72 F5      .Y       -0.08844  -0.06599  -0.08844  -0.17724
   73 F5      .Z        0.05706  -0.00000  -0.05706  -0.00000
   74 F5      .XX       0.15487  -0.08564   0.15487   0.50075
   75 F5      .YY       0.19759  -0.15572   0.19759   0.65740
   76 F5      .ZZ       0.21300  -0.08564   0.21300   0.50075
   77 F5      .XY      -0.00000  -0.00000  -0.00000  -0.00000
   78 F5      .XZ      -0.00000  -0.00000  -0.00000   0.00000
   79 F5      .YZ      -0.00567  -0.00000   0.00567  -0.00000
   80 F6      .S        0.05364   0.05364   0.05364   0.13493
   81 F6      .S        0.23513   0.23513   0.23513   0.64922
   82 F6      .X        0.03036   0.03036   0.03036   0.02950
   83 F6      .Y        0.00000  -0.03057   0.00000   0.00000
   84 F6      .Z        0.03057  -0.00000  -0.03057  -0.00000
   85 F6      .S       -1.06462  -1.06462  -1.06462  -2.56424
   86 F6      .X        0.08844   0.08844   0.08844   0.17724
   87 F6      .Y        0.00000  -0.05706   0.00000   0.00000
   88 F6      .Z        0.05706  -0.00000  -0.05706  -0.00000
   89 F6      .XX       0.19759   0.19759   0.19759   0.65740
   90 F6      .YY       0.15487   0.21300   0.15487   0.50075
   91 F6      .ZZ       0.21300   0.15487   0.21300   0.50075
   92 F6      .XY      -0.00000  -0.00567  -0.00000  -0.00000
   93 F6      .XZ       0.00567   0.00000  -0.00567   0.00000
   94 F6      .YZ       0.00000  -0.00000  -0.00000  -0.00000
   95 F7      .S        0.05364   0.05364   0.05364   0.13493
   96 F7      .S        0.23513   0.23513   0.23513   0.64922
   97 F7      .X       -0.03036  -0.03036  -0.03036  -0.02950
   98 F7      .Y        0.00000  -0.03057   0.00000   0.00000
   99 F7      .Z        0.03057  -0.00000  -0.03057  -0.00000
  100 F7      .S       -1.06462  -1.06462  -1.06462  -2.56424
  101 F7      .X       -0.08844  -0.08844  -0.08844  -0.17724
  102 F7      .Y        0.00000  -0.05706   0.00000   0.00000
  103 F7      .Z        0.05706  -0.00000  -0.05706  -0.00000
  104 F7      .XX       0.19759   0.19759   0.19759   0.65740
  105 F7      .YY       0.15487   0.21300   0.15487   0.50075
  106 F7      .ZZ       0.21300   0.15487   0.21300   0.50075
  107 F7      .XY       0.00000   0.00567   0.00000   0.00000
  108 F7      .XZ      -0.00567  -0.00000   0.00567  -0.00000
  109 F7      .YZ      -0.00000  -0.00000  -0.00000  -0.00000
