 Entering Gaussian System

 Standard orientation:



 -------------------------------------------------------
     1  16    0     0.000000     0.000000     1.192657
     2   6    0     0.000000     1.236399    -0.009960
     3   6    0     0.000000    -1.236399    -0.009960
     4   6    0     0.000000     0.713765    -1.266084
     5   6    0     0.000000    -0.713765    -1.266084
     6   1    0     0.000000     2.277720     0.279836
     7   1    0     0.000000    -2.277720     0.279836
     8   1    0     0.000000     1.319056    -2.164820
     9   1    0     0.000000    -1.319056    -2.164820
 -------------------------------------------------------

 AO basis set (Overlap normalization):
 Atom  S1     Shell     1 S    6
   2.1917100000e+04   1.8692408490e-03
   3.3014900000e+03   1.4230306460e-02
   7.5414600000e+02   6.9696231660e-02
   2.1271100000e+02   2.3848710830e-01
   6.7989600000e+01   4.8330721950e-01
   2.3051500000e+01   3.3807415360e-01
 Atom  S1     Shell     2 SP   6
   4.2373500000e+02  -2.3767704990e-03   4.0610099820e-03
   1.0071000000e+02  -3.1693006650e-02   3.0681299860e-02
   3.2159900000e+01  -1.1331702380e-01   1.3045199940e-01
   1.1807900000e+01   5.6090011770e-02   3.2720499850e-01
   4.6311000000e+00   5.9225512430e-01   4.5285099800e-01
   1.8702500000e+00   4.5500609550e-01   2.5604199890e-01
 Atom  S1     Shell     3 SP   3
   2.6158400000e+00  -2.5037311420e-01  -1.4510489550e-02
   9.2216700000e-01   6.6956763100e-02   3.1026277650e-01
   3.4128700000e-01   1.0545062690e+00   7.5448245650e-01
 Atom  S1     Shell     4 SP   1
   1.1716700000e-01   1.0000000000e+00   1.0000000000e+00
 Atom  S1     Shell     5 D    1
   6.5000000000e-01   1.0000000000e+00
 Atom  C2     Shell     6 S    6
   3.0475248800e+03   1.8347371320e-03
   4.5736951800e+02   1.4037322810e-02
   1.0394868500e+02   6.8842622260e-02
   2.9210155300e+01   2.3218444320e-01
   9.2866629600e+00   4.6794134840e-01
   3.1639269600e+00   3.6231198530e-01
 Atom  C2     Shell     7 SP   3
   7.8682723500e+00  -1.1933241980e-01   6.8999066590e-02
   1.8812885400e+00  -1.6085415170e-01   3.1642396100e-01
   5.4424925800e-01   1.1434564380e+00   7.4430829090e-01
 Atom  C2     Shell     8 SP   1
   1.6871447820e-01   1.0000000000e+00   1.0000000000e+00
 Atom  C2     Shell     9 D    1
   8.0000000000e-01   1.0000000000e+00
 Atom  C3     Shell    10 S    6
   3.0475248800e+03   1.8347371320e-03
   4.5736951800e+02   1.4037322810e-02
   1.0394868500e+02   6.8842622260e-02
   2.9210155300e+01   2.3218444320e-01
   9.2866629600e+00   4.6794134840e-01
   3.1639269600e+00   3.6231198530e-01
 Atom  C3     Shell    11 SP   3
   7.8682723500e+00  -1.1933241980e-01   6.8999066590e-02
   1.8812885400e+00  -1.6085415170e-01   3.1642396100e-01
   5.4424925800e-01   1.1434564380e+00   7.4430829090e-01
 Atom  C3     Shell    12 SP   1
   1.6871447820e-01   1.0000000000e+00   1.0000000000e+00
 Atom  C3     Shell    13 D    1
   8.0000000000e-01   1.0000000000e+00
 Atom  C4     Shell    14 S    6
   3.0475248800e+03   1.8347371320e-03
   4.5736951800e+02   1.4037322810e-02
   1.0394868500e+02   6.8842622260e-02
   2.9210155300e+01   2.3218444320e-01
   9.2866629600e+00   4.6794134840e-01
   3.1639269600e+00   3.6231198530e-01
 Atom  C4     Shell    15 SP   3
   7.8682723500e+00  -1.1933241980e-01   6.8999066590e-02
   1.8812885400e+00  -1.6085415170e-01   3.1642396100e-01
   5.4424925800e-01   1.1434564380e+00   7.4430829090e-01
 Atom  C4     Shell    16 SP   1
   1.6871447820e-01   1.0000000000e+00   1.0000000000e+00
 Atom  C4     Shell    17 D    1
   8.0000000000e-01   1.0000000000e+00
 Atom  C5     Shell    18 S    6
   3.0475248800e+03   1.8347371320e-03
   4.5736951800e+02   1.4037322810e-02
   1.0394868500e+02   6.8842622260e-02
   2.9210155300e+01   2.3218444320e-01
   9.2866629600e+00   4.6794134840e-01
   3.1639269600e+00   3.6231198530e-01
 Atom  C5     Shell    19 SP   3
   7.8682723500e+00  -1.1933241980e-01   6.8999066590e-02
   1.8812885400e+00  -1.6085415170e-01   3.1642396100e-01
   5.4424925800e-01   1.1434564380e+00   7.4430829090e-01
 Atom  C5     Shell    20 SP   1
   1.6871447820e-01   1.0000000000e+00   1.0000000000e+00
 Atom  C5     Shell    21 D    1
   8.0000000000e-01   1.0000000000e+00
 Atom  H6     Shell    22 S    3
   1.8731136960e+01   3.3494604340e-02
   2.8253943650e+00   2.3472695350e-01
   6.4012169230e-01   8.1375732610e-01
 Atom  H6     Shell    23 S    1
   1.6127775880e-01   1.0000000000e+00
 Atom  H7     Shell    24 S    3
   1.8731136960e+01   3.3494604340e-02
   2.8253943650e+00   2.3472695350e-01
   6.4012169230e-01   8.1375732610e-01
 Atom  H7     Shell    25 S    1
   1.6127775880e-01   1.0000000000e+00
 Atom  H8     Shell    26 S    3
   1.8731136960e+01   3.3494604340e-02
   2.8253943650e+00   2.3472695350e-01
   6.4012169230e-01   8.1375732610e-01
 Atom  H8     Shell    27 S    1
   1.6127775880e-01   1.0000000000e+00
 Atom  H9     Shell    28 S    3
   1.8731136960e+01   3.3494604340e-02
   2.8253943650e+00   2.3472695350e-01
   6.4012169230e-01   8.1375732610e-01
 Atom  H9     Shell    29 S    1
   1.6127775880e-01   1.0000000000e+00

 Molecular Orbital Coefficients:
                           1         2         3         4         5
                           O         O         O         O         O    
     Eigenvalues --  -2388.9867-276.40532-276.40532-275.20129-275.20129
    1 S1      .S        1.02261  -0.00034  -0.00034  -0.00000  -0.00000
    2 S1      .S       -0.10872   0.00195   0.00195  -0.00031  -0.00031
    3 S1      .X       -0.00000   0.00000  -0.00000   0.00000   0.00000
    4 S1      .Y        0.00000  -0.00246   0.00246   0.00065  -0.00065
    5 S1      .Z       -0.00004  -0.00313  -0.00313   0.00106   0.00106
    6 S1      .S       -0.03341  -0.00146  -0.00146  -0.00113  -0.00113
    7 S1      .X       -0.00000  -0.00000   0.00000  -0.00000   0.00000
    8 S1      .Y       -0.00000   0.00530  -0.00530  -0.00120   0.00120
    9 S1      .Z        0.00016   0.00805   0.00805  -0.00396  -0.00396
   10 S1      .S        0.00421  -0.00733  -0.00733  -0.00090  -0.00090
   11 S1      .X       -0.00000  -0.00000   0.00000   0.00000   0.00000
   12 S1      .Y       -0.00000   0.00377  -0.00377  -0.00339   0.00339
   13 S1      .Z        0.00018   0.00838   0.00838  -0.00260  -0.00260
   14 S1      .XX       0.01046  -0.00002  -0.00002  -0.00001  -0.00001
   15 S1      .YY       0.01046  -0.00009  -0.00009   0.00003   0.00003
   16 S1      .ZZ       0.01046  -0.00008  -0.00008   0.00003   0.00003
   17 S1      .XY       0.00000  -0.00000   0.00000  -0.00000   0.00000
   18 S1      .XZ       0.00000   0.00000   0.00000   0.00000  -0.00000
   19 S1      .YZ       0.00000  -0.00011   0.00011   0.00005  -0.00005
   20 C2      .S       -0.00003  -0.00053   1.00838   0.00459  -0.00040
   21 C2      .S        0.00005  -0.00013   0.00201  -0.00174   0.00040
   22 C2      .X       -0.00000   0.00000  -0.00000   0.00000  -0.00000
   23 C2      .Y       -0.00004  -0.00245  -0.00048   0.00958  -0.00570
   24 C2      .Z        0.00005   0.00101  -0.00875   0.01890  -0.00068
   25 C2      .S        0.00039  -0.00576   0.01511  -0.04995   0.00750
   26 C2      .X       -0.00000   0.00000   0.00000   0.00000  -0.00000
   27 C2      .Y       -0.00014  -0.00059  -0.01229   0.03082  -0.01755
   28 C2      .Z        0.00012   0.00435  -0.02416   0.04568  -0.00168
   29 C2      .XX       0.00001  -0.00002  -0.00906  -0.00078   0.00012
   30 C2      .YY       0.00001   0.00002  -0.00897  -0.00086   0.00018
   31 C2      .ZZ       0.00001  -0.00003  -0.00887  -0.00118   0.00016
   32 C2      .XY       0.00000  -0.00000   0.00000  -0.00000   0.00000
   33 C2      .XZ      -0.00000  -0.00000   0.00000  -0.00000  -0.00000
   34 C2      .YZ      -0.00000   0.00001   0.00011  -0.00016  -0.00000
   35 C3      .S       -0.00003   1.00838  -0.00053  -0.00040   0.00459
   36 C3      .S        0.00005   0.00201  -0.00013   0.00040  -0.00174
   37 C3      .X       -0.00000   0.00000   0.00000  -0.00000  -0.00000
   38 C3      .Y        0.00004   0.00048   0.00245   0.00570  -0.00958
   39 C3      .Z        0.00005  -0.00875   0.00101  -0.00068   0.01890
   40 C3      .S        0.00039   0.01511  -0.00576   0.00750  -0.04995
   41 C3      .X       -0.00000   0.00000  -0.00000  -0.00000  -0.00000
   42 C3      .Y        0.00014   0.01229   0.00059   0.01755  -0.03082
   43 C3      .Z        0.00012  -0.02416   0.00435  -0.00168   0.04568
   44 C3      .XX       0.00001  -0.00906  -0.00002   0.00012  -0.00078
   45 C3      .YY       0.00001  -0.00897   0.00002   0.00018  -0.00086
   46 C3      .ZZ       0.00001  -0.00887  -0.00003   0.00016  -0.00118
   47 C3      .XY       0.00000   0.00000   0.00000  -0.00000  -0.00000
   48 C3      .XZ       0.00000  -0.00000  -0.00000   0.00000  -0.00000
   49 C3      .YZ       0.00000  -0.00011  -0.00001   0.00000   0.00016
   50 C4      .S       -0.00001  -0.00037   0.00488   1.00943   0.00343
   51 C4      .S       -0.00003  -0.00026  -0.00086  -0.00573   0.00206
   52 C4      .X       -0.00000  -0.00000   0.00000  -0.00000   0.00000
   53 C4      .Y       -0.00003  -0.00063  -0.00772  -0.00142   0.01670
   54 C4      .Z        0.00001   0.00590  -0.02227   0.00632  -0.00221
   55 C4      .S       -0.00009   0.00742  -0.05120   0.04039  -0.04587
   56 C4      .X       -0.00000  -0.00000   0.00000  -0.00000   0.00000
   57 C4      .Y       -0.00001   0.00039  -0.01478  -0.01532   0.04532
   58 C4      .Z        0.00001   0.01767  -0.05726   0.03227  -0.01598
   59 C4      .XX      -0.00000   0.00019  -0.00173  -0.00700  -0.00142
   60 C4      .YY      -0.00001   0.00026  -0.00180  -0.00689  -0.00184
   61 C4      .ZZ      -0.00001   0.00024  -0.00209  -0.00686  -0.00139
   62 C4      .XY       0.00000   0.00000  -0.00000   0.00000  -0.00000
   63 C4      .XZ      -0.00000   0.00000  -0.00000   0.00000   0.00000
   64 C4      .YZ       0.00000  -0.00002  -0.00018   0.00007  -0.00001
   65 C5      .S       -0.00001   0.00488  -0.00037   0.00343   1.00943
   66 C5      .S       -0.00003  -0.00086  -0.00026   0.00206  -0.00573
   67 C5      .X       -0.00000   0.00000   0.00000  -0.00000  -0.00000
   68 C5      .Y        0.00003   0.00772   0.00063  -0.01670   0.00142
   69 C5      .Z        0.00001  -0.02227   0.00590  -0.00221   0.00632
   70 C5      .S       -0.00009  -0.05120   0.00742  -0.04587   0.04039
   71 C5      .X       -0.00000   0.00000   0.00000  -0.00000  -0.00000
   72 C5      .Y        0.00001   0.01478  -0.00039  -0.04532   0.01532
   73 C5      .Z        0.00001  -0.05726   0.01767  -0.01598   0.03227
   74 C5      .XX      -0.00000  -0.00173   0.00019  -0.00142  -0.00700
   75 C5      .YY      -0.00001  -0.00180   0.00026  -0.00184  -0.00689
   76 C5      .ZZ      -0.00001  -0.00209   0.00024  -0.00139  -0.00686
   77 C5      .XY      -0.00000   0.00000  -0.00000   0.00000  -0.00000
   78 C5      .XZ      -0.00000   0.00000   0.00000   0.00000  -0.00000
   79 C5      .YZ      -0.00000   0.00018   0.00002   0.00001  -0.00007
   80 H6      .S       -0.00006   0.00038  -0.00770  -0.00435   0.00242
   81 H6      .S       -0.00006  -0.00068  -0.01348  -0.00944   0.00455
   82 H7      .S       -0.00006  -0.00770   0.00038   0.00242  -0.00435
   83 H7      .S       -0.00006  -0.01348  -0.00068   0.00455  -0.00944
   84 H8      .S        0.00002   0.00155  -0.00374  -0.00508  -0.00319
   85 H8      .S        0.00002   0.00298  -0.00914  -0.00655  -0.00875
   86 H9      .S        0.00002  -0.00374   0.00155  -0.00319  -0.00508
   87 H9      .S        0.00002  -0.00914   0.00298  -0.00875  -0.00655
                           6         7         8         9        10
                           O         O         O         O         O    
     Eigenvalues --  -243.56619-163.13212-163.04571-163.01955 -21.63414
    1 S1      .S       -0.16809   0.00000  -0.00068   0.00000  -0.00318
    2 S1      .S        1.06237  -0.00000   0.00218   0.00000   0.01206
    3 S1      .X       -0.00000   0.00000  -0.00000   0.99879   0.00000
    4 S1      .Y        0.00000   0.99682   0.00000   0.00000  -0.00950
    5 S1      .Z        0.00179  -0.00000   0.99733   0.00000  -0.01799
    6 S1      .S       -0.04287   0.00000  -0.01227   0.00000  -0.04216
    7 S1      .X        0.00000   0.00000   0.00000   0.00766  -0.00000
    8 S1      .Y        0.00000   0.01660   0.00000  -0.00000   0.02767
    9 S1      .Z       -0.01067   0.00000   0.01483  -0.00000   0.05073
   10 S1      .S       -0.03714  -0.00000  -0.01241   0.00000  -0.00284
   11 S1      .X       -0.00000   0.00000   0.00000  -0.01675   0.00000
   12 S1      .Y        0.00000  -0.00784   0.00000  -0.00000   0.03643
   13 S1      .Z       -0.01901   0.00000  -0.00943  -0.00000   0.01659
   14 S1      .XX      -0.01615  -0.00000   0.00020   0.00000   0.00134
   15 S1      .YY      -0.01616  -0.00000   0.00021  -0.00000   0.00180
   16 S1      .ZZ      -0.01616  -0.00000   0.00021  -0.00000   0.00192
   17 S1      .XY      -0.00000   0.00000   0.00000  -0.00000  -0.00000
   18 S1      .XZ      -0.00000   0.00000  -0.00000   0.00000  -0.00000
   19 S1      .YZ      -0.00000   0.00002   0.00000  -0.00000   0.00119
   20 C2      .S        0.00259   0.00211  -0.00200   0.00000   0.00351
   21 C2      .S        0.00383  -0.00143   0.00125  -0.00000  -0.01037
   22 C2      .X       -0.00000  -0.00000  -0.00000  -0.00148   0.00000
   23 C2      .Y        0.01015   0.00523  -0.00749   0.00000   0.01652
   24 C2      .Z       -0.00721  -0.00723   0.00350   0.00000   0.01956
   25 C2      .S       -0.02043  -0.00611   0.01159  -0.00000  -0.13575
   26 C2      .X       -0.00000  -0.00000  -0.00000  -0.00416   0.00000
   27 C2      .Y        0.02811   0.00706  -0.01436   0.00000   0.00964
   28 C2      .Z       -0.01889  -0.01717   0.00606   0.00000   0.02120
   29 C2      .XX       0.00024  -0.00024   0.00025  -0.00000  -0.00203
   30 C2      .YY       0.00023  -0.00023   0.00025   0.00000  -0.00318
   31 C2      .ZZ       0.00023  -0.00023   0.00025  -0.00000  -0.00240
   32 C2      .XY       0.00000   0.00000  -0.00000  -0.00000  -0.00000
   33 C2      .XZ       0.00000   0.00000  -0.00000   0.00000  -0.00000
   34 C2      .YZ       0.00001  -0.00000   0.00000   0.00000  -0.00021
   35 C3      .S        0.00259  -0.00211  -0.00200  -0.00000  -0.05874
   36 C3      .S        0.00383   0.00143   0.00125  -0.00000   0.28127
   37 C3      .X       -0.00000  -0.00000  -0.00000  -0.00148   0.00000
   38 C3      .Y       -0.01015   0.00523   0.00749  -0.00000   0.10545
   39 C3      .Z       -0.00721   0.00723   0.00350  -0.00000  -0.31983
   40 C3      .S       -0.02043   0.00611   0.01159  -0.00000   0.29822
   41 C3      .X       -0.00000  -0.00000  -0.00000  -0.00416   0.00000
   42 C3      .Y       -0.02811   0.00706   0.01436  -0.00000   0.04684
   43 C3      .Z       -0.01889   0.01717   0.00606  -0.00000  -0.12069
   44 C3      .XX       0.00024   0.00024   0.00025   0.00000  -0.01412
   45 C3      .YY       0.00023   0.00023   0.00025  -0.00000  -0.00405
   46 C3      .ZZ       0.00023   0.00023   0.00025   0.00000   0.00492
   47 C3      .XY      -0.00000  -0.00000   0.00000   0.00000  -0.00000
   48 C3      .XZ       0.00000   0.00000  -0.00000   0.00000   0.00000
   49 C3      .YZ      -0.00001  -0.00000  -0.00000   0.00000  -0.00963
   50 C4      .S       -0.00057   0.00002   0.00013  -0.00000   0.00944
   51 C4      .S       -0.00015   0.00009  -0.00074  -0.00000  -0.04272
   52 C4      .X       -0.00000   0.00000   0.00000   0.00077  -0.00000
   53 C4      .Y       -0.00389  -0.00263   0.00154  -0.00000   0.06254
   54 C4      .Z        0.00346  -0.00034  -0.00146   0.00000  -0.04938
   55 C4      .S       -0.00239  -0.00527  -0.00213   0.00000   0.05459
   56 C4      .X       -0.00000   0.00000   0.00000   0.00127  -0.00000
   57 C4      .Y       -0.00959  -0.00469   0.00228  -0.00000   0.03766
   58 C4      .Z        0.00686  -0.00320  -0.00219   0.00000   0.15252
   59 C4      .XX      -0.00008  -0.00014  -0.00014   0.00000  -0.00130
   60 C4      .YY      -0.00007  -0.00014  -0.00014   0.00000   0.00179
   61 C4      .ZZ      -0.00007  -0.00014  -0.00014   0.00000  -0.00209
   62 C4      .XY      -0.00000  -0.00000   0.00000   0.00000   0.00000
   63 C4      .XZ      -0.00000  -0.00000   0.00000  -0.00000  -0.00000
   64 C4      .YZ      -0.00000   0.00000  -0.00000   0.00000  -0.00074
   65 C5      .S       -0.00057  -0.00002   0.00013  -0.00000  -0.04695
   66 C5      .S       -0.00015  -0.00009  -0.00074  -0.00000   0.27798
   67 C5      .X       -0.00000  -0.00000   0.00000   0.00077   0.00000
   68 C5      .Y        0.00389  -0.00263  -0.00154  -0.00000  -0.14641
   69 C5      .Z        0.00346   0.00034  -0.00146  -0.00000   0.29578
   70 C5      .S       -0.00239   0.00527  -0.00213  -0.00000   0.08754
   71 C5      .X       -0.00000   0.00000  -0.00000   0.00127  -0.00000
   72 C5      .Y        0.00959  -0.00469  -0.00228  -0.00000  -0.06096
   73 C5      .Z        0.00686   0.00320  -0.00219  -0.00000  -0.03485
   74 C5      .XX      -0.00008   0.00014  -0.00014  -0.00000  -0.01182
   75 C5      .YY      -0.00007   0.00014  -0.00014  -0.00000  -0.00943
   76 C5      .ZZ      -0.00007   0.00014  -0.00014  -0.00000   0.00978
   77 C5      .XY       0.00000   0.00000  -0.00000  -0.00000   0.00000
   78 C5      .XZ      -0.00000  -0.00000   0.00000  -0.00000   0.00000
   79 C5      .YZ       0.00000   0.00000   0.00000   0.00000  -0.00833
   80 H6      .S       -0.00215   0.00054   0.00211  -0.00000   0.00533
   81 H6      .S       -0.00530   0.00042   0.00303  -0.00000   0.01165
   82 H7      .S       -0.00215  -0.00054   0.00211   0.00000  -0.04787
   83 H7      .S       -0.00530  -0.00042   0.00303   0.00000  -0.06800
   84 H8      .S        0.00194   0.00012  -0.00028   0.00000   0.00697
   85 H8      .S        0.00332  -0.00022  -0.00041   0.00000   0.05166
   86 H9      .S        0.00194  -0.00012  -0.00028  -0.00000  -0.05419
   87 H9      .S        0.00332   0.00022  -0.00041  -0.00000  -0.09328
                          11        12        13        14        15
                           O         O         O         O         O    
     Eigenvalues --   -21.63414 -19.80928 -19.76447 -19.76447 -18.81364
    1 S1      .S       -0.00318  -0.00218   0.01623   0.01623   0.04513
    2 S1      .S        0.01206   0.00409  -0.04566  -0.04566  -0.16640
    3 S1      .X        0.00000  -0.00000   0.00000   0.00000  -0.00000
    4 S1      .Y        0.00950  -0.00000   0.12959  -0.12959  -0.00000
    5 S1      .Z       -0.01799  -0.00815   0.09582   0.09582  -0.14832
    6 S1      .S       -0.04216  -0.04562   0.27387   0.27387   0.65800
    7 S1      .X       -0.00000   0.00000   0.00000  -0.00000   0.00000
    8 S1      .Y       -0.02767   0.00000  -0.41211   0.41211  -0.00000
    9 S1      .Z        0.05073   0.02963  -0.28937  -0.28937   0.43182
   10 S1      .S       -0.00284  -0.05210  -0.04412  -0.04412   0.43232
   11 S1      .X       -0.00000   0.00000  -0.00000   0.00000  -0.00000
   12 S1      .Y       -0.03643   0.00000  -0.07129   0.07129   0.00000
   13 S1      .Z        0.01659   0.01847  -0.04968  -0.04968   0.14561
   14 S1      .XX       0.00134   0.00157  -0.02609  -0.02609   0.00233
   15 S1      .YY       0.00180   0.00141   0.01222   0.01222  -0.01430
   16 S1      .ZZ       0.00192   0.00092   0.01328   0.01328  -0.02755
   17 S1      .XY       0.00000   0.00000   0.00000  -0.00000   0.00000
   18 S1      .XZ       0.00000  -0.00000   0.00000  -0.00000  -0.00000
   19 S1      .YZ      -0.00119   0.00000   0.05931  -0.05931  -0.00000
   20 C2      .S       -0.05874   0.01181   0.00254  -0.03958   0.01339
   21 C2      .S        0.28127  -0.03115  -0.04834   0.19154  -0.00138
   22 C2      .X       -0.00000  -0.00000   0.00000  -0.00000   0.00000
   23 C2      .Y       -0.10545   0.07052   0.06628  -0.23655   0.02145
   24 C2      .Z       -0.31983   0.03669   0.01004   0.27226  -0.06414
   25 C2      .S        0.29822  -0.04256   0.19734   0.13553  -0.09130
   26 C2      .X       -0.00000   0.00000   0.00000  -0.00000   0.00000
   27 C2      .Y       -0.04684  -0.03271  -0.10767   0.00697   0.05669
   28 C2      .Z       -0.12069   0.09390  -0.05922   0.13012  -0.11382
   29 C2      .XX      -0.01412  -0.00255  -0.00419  -0.00979  -0.00153
   30 C2      .YY      -0.00405  -0.00224   0.00062   0.00584   0.00028
   31 C2      .ZZ       0.00492  -0.00056   0.00073   0.00305  -0.00035
   32 C2      .XY       0.00000   0.00000   0.00000  -0.00000  -0.00000
   33 C2      .XZ       0.00000  -0.00000  -0.00000   0.00000  -0.00000
   34 C2      .YZ       0.00963   0.00234  -0.00414  -0.01862  -0.00106
   35 C3      .S        0.00351   0.01181  -0.03958   0.00254   0.01339
   36 C3      .S       -0.01037  -0.03115   0.19154  -0.04834  -0.00138
   37 C3      .X       -0.00000   0.00000   0.00000   0.00000   0.00000
   38 C3      .Y       -0.01652  -0.07052   0.23655  -0.06628  -0.02145
   39 C3      .Z        0.01956   0.03669   0.27226   0.01004  -0.06414
   40 C3      .S       -0.13575  -0.04256   0.13553   0.19734  -0.09130
   41 C3      .X       -0.00000   0.00000   0.00000  -0.00000   0.00000
   42 C3      .Y       -0.00964   0.03271  -0.00697   0.10767  -0.05669
   43 C3      .Z        0.02120   0.09390   0.13012  -0.05922  -0.11382
   44 C3      .XX      -0.00203  -0.00255  -0.00979  -0.00419  -0.00153
   45 C3      .YY      -0.00318  -0.00224   0.00584   0.00062   0.00028
   46 C3      .ZZ      -0.00240  -0.00056   0.00305   0.00073  -0.00035
   47 C3      .XY      -0.00000  -0.00000   0.00000  -0.00000   0.00000
   48 C3      .XZ      -0.00000  -0.00000   0.00000  -0.00000  -0.00000
   49 C3      .YZ       0.00021  -0.00234   0.01862   0.00414   0.00106
   50 C4      .S       -0.04695  -0.04680   0.00615   0.00792  -0.00102
   51 C4      .S        0.27798   0.26144   0.02689  -0.04923  -0.00505
   52 C4      .X       -0.00000  -0.00000   0.00000   0.00000   0.00000
   53 C4      .Y        0.14641  -0.35030   0.01171   0.03674  -0.01761
   54 C4      .Z        0.29578  -0.02717  -0.00403  -0.07444   0.00370
   55 C4      .S        0.08754   0.23348  -0.33355   0.20929  -0.03197
   56 C4      .X        0.00000   0.00000  -0.00000   0.00000   0.00000
   57 C4      .Y        0.06096  -0.06342   0.13561  -0.19034  -0.02415
   58 C4      .Z       -0.03485  -0.02507  -0.14764   0.06444   0.00191
   59 C4      .XX      -0.01182  -0.00975  -0.00272  -0.00156  -0.00145
   60 C4      .YY      -0.00943   0.01455  -0.00568  -0.00078  -0.00146
   61 C4      .ZZ       0.00978  -0.00844  -0.00493   0.00494  -0.00192
   62 C4      .XY      -0.00000   0.00000   0.00000   0.00000   0.00000
   63 C4      .XZ      -0.00000  -0.00000   0.00000  -0.00000   0.00000
   64 C4      .YZ       0.00833  -0.00213   0.00067  -0.00029   0.00027
   65 C5      .S        0.00944  -0.04680   0.00792   0.00615  -0.00102
   66 C5      .S       -0.04272   0.26144  -0.04923   0.02689  -0.00505
   67 C5      .X       -0.00000   0.00000   0.00000  -0.00000   0.00000
   68 C5      .Y       -0.06254   0.35030  -0.03674  -0.01171   0.01761
   69 C5      .Z       -0.04938  -0.02717  -0.07444  -0.00403   0.00370
   70 C5      .S        0.05459   0.23348   0.20929  -0.33355  -0.03197
   71 C5      .X       -0.00000   0.00000   0.00000   0.00000   0.00000
   72 C5      .Y       -0.03766   0.06342   0.19034  -0.13561   0.02415
   73 C5      .Z        0.15252  -0.02507   0.06444  -0.14764   0.00191
   74 C5      .XX      -0.00130  -0.00975  -0.00156  -0.00272  -0.00145
   75 C5      .YY       0.00179   0.01455  -0.00078  -0.00568  -0.00146
   76 C5      .ZZ      -0.00209  -0.00844   0.00494  -0.00493  -0.00192
   77 C5      .XY      -0.00000  -0.00000   0.00000  -0.00000  -0.00000
   78 C5      .XZ      -0.00000  -0.00000   0.00000  -0.00000   0.00000
   79 C5      .YZ       0.00074   0.00213   0.00029  -0.00067  -0.00027
   80 H6      .S       -0.04787  -0.00369  -0.00270  -0.04374  -0.00259
   81 H6      .S       -0.06800   0.02115   0.03502  -0.08906  -0.00234
   82 H7      .S        0.00533  -0.00369  -0.04374  -0.00270  -0.00259
   83 H7      .S        0.01165   0.02115  -0.08906   0.03502  -0.00234
   84 H8      .S       -0.05419  -0.04770  -0.00831   0.00008   0.00291
   85 H8      .S       -0.09328  -0.08020  -0.05258   0.05753   0.00338
   86 H9      .S        0.00697  -0.04770   0.00008  -0.00831   0.00291
   87 H9      .S        0.05166  -0.08020   0.05753  -0.05258   0.00338
                          16        17        18        19        20
                           O         O         O         O         O    
     Eigenvalues --   -16.81329 -16.81329 -16.18534 -16.18534  -8.77750
    1 S1      .S        0.00305  -0.00305   0.00021   0.00021   0.00000
    2 S1      .S       -0.01091   0.01091  -0.00110  -0.00110   0.00000
    3 S1      .X       -0.00000  -0.00000  -0.00000   0.00000   0.01864
    4 S1      .Y        0.02168   0.02168  -0.00217   0.00217   0.00000
    5 S1      .Z        0.00619  -0.00619  -0.00266  -0.00266   0.00000
    6 S1      .S        0.04129  -0.04129   0.00309   0.00309  -0.00000
    7 S1      .X        0.00000  -0.00000  -0.00000  -0.00000  -0.06014
    8 S1      .Y       -0.06637  -0.06637   0.00613  -0.00613   0.00000
    9 S1      .Z       -0.01713   0.01713   0.01120   0.01120  -0.00000
   10 S1      .S        0.01165  -0.01165  -0.01645  -0.01645  -0.00000
   11 S1      .X       -0.00000  -0.00000  -0.00000   0.00000  -0.02177
   12 S1      .Y       -0.01081  -0.01081   0.00483  -0.00483   0.00000
   13 S1      .Z       -0.01054   0.01054   0.00907   0.00907  -0.00000
   14 S1      .XX      -0.00099   0.00099  -0.00021  -0.00021   0.00000
   15 S1      .YY      -0.00210   0.00210   0.00006   0.00006   0.00000
   16 S1      .ZZ      -0.00072   0.00072  -0.00079  -0.00079   0.00000
   17 S1      .XY      -0.00000   0.00000  -0.00000   0.00000  -0.00006
   18 S1      .XZ      -0.00000   0.00000   0.00000  -0.00000   0.00021
   19 S1      .YZ      -0.00072  -0.00072   0.00049  -0.00049   0.00000
   20 C2      .S        0.00051  -0.05698  -0.01299   0.00128  -0.00000
   21 C2      .S       -0.00216   0.25177   0.02552   0.00109  -0.00000
   22 C2      .X        0.00000   0.00000  -0.00000  -0.00000   0.42255
   23 C2      .Y        0.01419   0.35782   0.01946   0.01888  -0.00000
   24 C2      .Z        0.00568   0.08053  -0.08397  -0.00019   0.00000
   25 C2      .S        0.01227   0.24479   0.12696  -0.06116   0.00000
   26 C2      .X        0.00000   0.00000  -0.00000  -0.00000   0.31401
   27 C2      .Y       -0.03286   0.09814  -0.08705   0.01537  -0.00000
   28 C2      .Z       -0.02211   0.02734  -0.10237   0.02116  -0.00000
   29 C2      .XX      -0.00053  -0.01041   0.00253  -0.00073   0.00000
   30 C2      .YY      -0.00034   0.01775   0.00488  -0.00078  -0.00000
   31 C2      .ZZ      -0.00030  -0.00573   0.00017  -0.00009  -0.00000
   32 C2      .XY      -0.00000   0.00000  -0.00000   0.00000  -0.01391
   33 C2      .XZ       0.00000   0.00000  -0.00000   0.00000  -0.00900
   34 C2      .YZ       0.00021   0.01133   0.00105  -0.00054   0.00000
   35 C3      .S        0.05698  -0.00051   0.00128  -0.01299  -0.00000
   36 C3      .S       -0.25177   0.00216   0.00109   0.02552   0.00000
   37 C3      .X        0.00000   0.00000   0.00000  -0.00000   0.00285
   38 C3      .Y        0.35782   0.01419  -0.01888  -0.01946  -0.00000
   39 C3      .Z       -0.08053  -0.00568  -0.00019  -0.08397   0.00000
   40 C3      .S       -0.24479  -0.01227  -0.06116   0.12696  -0.00000
   41 C3      .X       -0.00000  -0.00000  -0.00000   0.00000  -0.00592
   42 C3      .Y        0.09814  -0.03286  -0.01537   0.08705  -0.00000
   43 C3      .Z       -0.02734   0.02211   0.02116  -0.10237   0.00000
   44 C3      .XX       0.01041   0.00053  -0.00073   0.00253   0.00000
   45 C3      .YY      -0.01775   0.00034  -0.00078   0.00488   0.00000
   46 C3      .ZZ       0.00573   0.00030  -0.00009   0.00017   0.00000
   47 C3      .XY       0.00000  -0.00000  -0.00000   0.00000  -0.00000
   48 C3      .XZ      -0.00000  -0.00000  -0.00000   0.00000  -0.00003
   49 C3      .YZ       0.01133   0.00021   0.00054  -0.00105   0.00000
   50 C4      .S        0.00116   0.01280   0.05127  -0.01083  -0.00000
   51 C4      .S        0.00624  -0.01655  -0.23665   0.01286  -0.00000
   52 C4      .X       -0.00000  -0.00000  -0.00000   0.00000   0.41439
   53 C4      .Y        0.00115  -0.07658  -0.21453  -0.06276  -0.00000
   54 C4      .Z       -0.02229  -0.04502   0.30581  -0.04718   0.00000
   55 C4      .S       -0.09314  -0.11078  -0.33126   0.13014   0.00000
   56 C4      .X       -0.00000  -0.00000  -0.00000   0.00000   0.26639
   57 C4      .Y        0.02703   0.03873  -0.02997  -0.08217  -0.00000
   58 C4      .Z       -0.01510  -0.10374   0.00979   0.07668  -0.00000
   59 C4      .XX      -0.00213  -0.00377   0.00733   0.00319   0.00000
   60 C4      .YY      -0.00184  -0.00314  -0.00328   0.00230   0.00000
   61 C4      .ZZ      -0.00198  -0.00596  -0.01501   0.00442   0.00000
   62 C4      .XY       0.00000   0.00000   0.00000  -0.00000   0.00142
   63 C4      .XZ      -0.00000  -0.00000  -0.00000   0.00000   0.01614
   64 C4      .YZ       0.00054   0.00227   0.01735  -0.00225   0.00000
   65 C5      .S       -0.01280  -0.00116  -0.01083   0.05127  -0.00000
   66 C5      .S        0.01655  -0.00624   0.01286  -0.23665  -0.00000
   67 C5      .X        0.00000   0.00000   0.00000  -0.00000  -0.06312
   68 C5      .Y       -0.07658   0.00115   0.06276   0.21453  -0.00000
   69 C5      .Z        0.04502   0.02229  -0.04718   0.30581  -0.00000
   70 C5      .S        0.11078   0.09314   0.13014  -0.33126   0.00000
   71 C5      .X        0.00000   0.00000   0.00000  -0.00000  -0.04754
   72 C5      .Y        0.03873   0.02703   0.08217   0.02997  -0.00000
   73 C5      .Z        0.10374   0.01510   0.07668   0.00979   0.00000
   74 C5      .XX       0.00377   0.00213   0.00319   0.00733   0.00000
   75 C5      .YY       0.00314   0.00184   0.00230  -0.00328   0.00000
   76 C5      .ZZ       0.00596   0.00198   0.00442  -0.01501   0.00000
   77 C5      .XY       0.00000   0.00000   0.00000  -0.00000   0.00031
   78 C5      .XZ       0.00000   0.00000   0.00000  -0.00000  -0.00041
   79 C5      .YZ       0.00227   0.00054   0.00225  -0.01735   0.00000
   80 H6      .S        0.00606   0.32631   0.01645   0.00284   0.00000
   81 H6      .S        0.01864   0.22334   0.03979   0.00449   0.00000
   82 H7      .S       -0.32631  -0.00606   0.00284   0.01645  -0.00000
   83 H7      .S       -0.22334  -0.01864   0.00449   0.03979  -0.00000
   84 H8      .S        0.00411  -0.01625  -0.33295   0.01453  -0.00000
   85 H8      .S        0.00440  -0.04023  -0.26810   0.03807  -0.00000
   86 H9      .S        0.01625  -0.00411   0.01453  -0.33295  -0.00000
   87 H9      .S        0.04023  -0.00440   0.03807  -0.26810  -0.00000
                          21        22        23        24        25
                           O         O         V         V         V    
     Eigenvalues --    -8.77750  -7.63255   1.95806   1.95806   8.21934
    1 S1      .S       -0.00000   0.00000  -0.00000   0.00000   0.03773
    2 S1      .S        0.00000   0.00000   0.00000  -0.00000  -0.12348
    3 S1      .X        0.01864  -0.26134  -0.01784  -0.01784   0.00000
    4 S1      .Y        0.00000  -0.00000  -0.00000  -0.00000  -0.19973
    5 S1      .Z        0.00000  -0.00000   0.00000   0.00000   0.15912
    6 S1      .S       -0.00000  -0.00000  -0.00000   0.00000   0.60058
    7 S1      .X       -0.06014   0.78782   0.06246   0.06246  -0.00000
    8 S1      .Y       -0.00000   0.00000  -0.00000  -0.00000   0.67643
    9 S1      .Z       -0.00000   0.00000  -0.00000  -0.00000  -0.53531
   10 S1      .S       -0.00000  -0.00000   0.00000   0.00000  -0.01717
   11 S1      .X       -0.02177   0.40909   0.02427   0.02427  -0.00000
   12 S1      .Y       -0.00000   0.00000  -0.00000  -0.00000   0.14220
   13 S1      .Z       -0.00000   0.00000  -0.00000  -0.00000  -0.15210
   14 S1      .XX       0.00000  -0.00000   0.00000  -0.00000  -0.02447
   15 S1      .YY       0.00000  -0.00000   0.00000  -0.00000   0.02376
   16 S1      .ZZ       0.00000   0.00000   0.00000  -0.00000   0.02405
   17 S1      .XY       0.00006   0.00000   0.00033  -0.00033   0.00000
   18 S1      .XZ       0.00021  -0.03271  -0.00061  -0.00061   0.00000
   19 S1      .YZ       0.00000  -0.00000   0.00000   0.00000  -0.06990
   20 C2      .S       -0.00000  -0.00000   0.00000   0.00000   0.08588
   21 C2      .S        0.00000  -0.00000  -0.00000  -0.00000  -0.34270
   22 C2      .X        0.00285  -0.07101  -0.54240   0.00522  -0.00000
   23 C2      .Y       -0.00000  -0.00000  -0.00000   0.00000   0.43471
   24 C2      .Z        0.00000   0.00000  -0.00000  -0.00000  -0.50264
   25 C2      .S        0.00000  -0.00000   0.00000  -0.00000  -0.45502
   26 C2      .X       -0.00592  -0.09352  -0.42730   0.00170   0.00000
   27 C2      .Y       -0.00000  -0.00000   0.00000  -0.00000   0.39818
   28 C2      .Z       -0.00000   0.00000   0.00000   0.00000  -0.14463
   29 C2      .XX       0.00000  -0.00000   0.00000   0.00000  -0.00805
   30 C2      .YY       0.00000  -0.00000   0.00000   0.00000  -0.04292
   31 C2      .ZZ       0.00000  -0.00000   0.00000   0.00000  -0.03971
   32 C2      .XY       0.00000   0.00158   0.01606   0.00001  -0.00000
   33 C2      .XZ      -0.00003  -0.00093   0.01421  -0.00024  -0.00000
   34 C2      .YZ       0.00000  -0.00000  -0.00000  -0.00000   0.03457
   35 C3      .S       -0.00000  -0.00000   0.00000   0.00000  -0.00224
   36 C3      .S       -0.00000  -0.00000   0.00000   0.00000  -0.04308
   37 C3      .X        0.42255  -0.07101   0.00522  -0.54240   0.00000
   38 C3      .Y       -0.00000   0.00000   0.00000   0.00000  -0.04896
   39 C3      .Z       -0.00000   0.00000  -0.00000   0.00000   0.04481
   40 C3      .S       -0.00000   0.00000  -0.00000  -0.00000   0.20436
   41 C3      .X        0.31401  -0.09352   0.00170  -0.42730   0.00000
   42 C3      .Y       -0.00000   0.00000  -0.00000  -0.00000   0.09040
   43 C3      .Z       -0.00000   0.00000   0.00000  -0.00000  -0.07546
   44 C3      .XX       0.00000   0.00000   0.00000   0.00000  -0.00354
   45 C3      .YY      -0.00000   0.00000  -0.00000   0.00000   0.00164
   46 C3      .ZZ      -0.00000   0.00000  -0.00000   0.00000   0.00216
   47 C3      .XY       0.01391  -0.00158  -0.00001  -0.01606  -0.00000
   48 C3      .XZ      -0.00900  -0.00093  -0.00024   0.01421   0.00000
   49 C3      .YZ       0.00000   0.00000   0.00000  -0.00000   0.00455
   50 C4      .S        0.00000   0.00000   0.00000   0.00000  -0.00674
   51 C4      .S       -0.00000   0.00000  -0.00000   0.00000  -0.01833
   52 C4      .X       -0.06312   0.00469   0.60431  -0.07668   0.00000
   53 C4      .Y        0.00000   0.00000   0.00000   0.00000  -0.09503
   54 C4      .Z        0.00000   0.00000  -0.00000  -0.00000   0.04975
   55 C4      .S       -0.00000  -0.00000  -0.00000  -0.00000   0.21961
   56 C4      .X       -0.04754   0.00668   0.42016  -0.05238  -0.00000
   57 C4      .Y        0.00000   0.00000   0.00000   0.00000   0.03901
   58 C4      .Z       -0.00000   0.00000  -0.00000   0.00000   0.16579
   59 C4      .XX      -0.00000  -0.00000   0.00000  -0.00000   0.00107
   60 C4      .YY      -0.00000  -0.00000  -0.00000  -0.00000   0.00510
   61 C4      .ZZ      -0.00000  -0.00000   0.00000   0.00000  -0.00135
   62 C4      .XY      -0.00031   0.00011   0.00290   0.00007   0.00000
   63 C4      .XZ      -0.00041   0.00036   0.02290  -0.00062  -0.00000
   64 C4      .YZ       0.00000  -0.00000   0.00000   0.00000  -0.00093
   65 C5      .S        0.00000  -0.00000  -0.00000  -0.00000   0.00075
   66 C5      .S        0.00000   0.00000  -0.00000  -0.00000   0.01031
   67 C5      .X        0.41439   0.00469  -0.07668   0.60431  -0.00000
   68 C5      .Y        0.00000   0.00000  -0.00000  -0.00000  -0.00194
   69 C5      .Z       -0.00000  -0.00000  -0.00000   0.00000   0.00854
   70 C5      .S        0.00000   0.00000   0.00000   0.00000  -0.13506
   71 C5      .X        0.26639   0.00668  -0.05238   0.42016   0.00000
   72 C5      .Y        0.00000   0.00000   0.00000   0.00000  -0.00258
   73 C5      .Z       -0.00000   0.00000   0.00000   0.00000  -0.13716
   74 C5      .XX       0.00000   0.00000   0.00000  -0.00000   0.00004
   75 C5      .YY       0.00000   0.00000   0.00000  -0.00000  -0.00195
   76 C5      .ZZ       0.00000   0.00000   0.00000  -0.00000  -0.00061
   77 C5      .XY      -0.00142  -0.00011  -0.00007  -0.00290   0.00000
   78 C5      .XZ       0.01614   0.00036  -0.00062   0.02290  -0.00000
   79 C5      .YZ      -0.00000  -0.00000   0.00000   0.00000   0.00054
   80 H6      .S        0.00000   0.00000   0.00000  -0.00000  -0.04013
   81 H6      .S        0.00000   0.00000  -0.00000   0.00000  -0.02975
   82 H7      .S       -0.00000  -0.00000  -0.00000  -0.00000   0.00516
   83 H7      .S       -0.00000   0.00000  -0.00000  -0.00000   0.02617
   84 H8      .S       -0.00000   0.00000  -0.00000  -0.00000   0.00174
   85 H8      .S       -0.00000   0.00000   0.00000  -0.00000   0.00122
   86 H9      .S       -0.00000   0.00000   0.00000   0.00000  -0.00674
   87 H9      .S       -0.00000   0.00000   0.00000   0.00000  -0.03679
                          26        27        28        29        30
                           V         V         V         V         V    
     Eigenvalues --     8.21934  14.93866  14.93866  15.15765  15.15765
    1 S1      .S        0.03773   0.00070   0.00070  -0.00007   0.00007
    2 S1      .S       -0.12348  -0.00221  -0.00221   0.00214  -0.00214
    3 S1      .X       -0.00000  -0.00000   0.00000   0.00000   0.00000
    4 S1      .Y        0.19973   0.00046  -0.00046  -0.01157  -0.01157
    5 S1      .Z        0.15912   0.00701   0.00701   0.00311  -0.00311
    6 S1      .S        0.60058   0.01041   0.01041   0.00722  -0.00722
    7 S1      .X        0.00000  -0.00000  -0.00000  -0.00000  -0.00000
    8 S1      .Y       -0.67643  -0.00727   0.00727   0.04099   0.04099
    9 S1      .Z       -0.53531  -0.02679  -0.02679  -0.01891   0.01891
   10 S1      .S       -0.01717   0.02932   0.02932  -0.02091   0.02091
   11 S1      .X        0.00000   0.00000   0.00000   0.00000  -0.00000
   12 S1      .Y       -0.14220   0.00656  -0.00656   0.01062   0.01062
   13 S1      .Z       -0.15210  -0.02036  -0.02036  -0.00787   0.00787
   14 S1      .XX      -0.02447  -0.00009  -0.00009   0.00083  -0.00083
   15 S1      .YY       0.02376  -0.00029  -0.00029   0.00167  -0.00167
   16 S1      .ZZ       0.02405   0.00036   0.00036   0.00062  -0.00062
   17 S1      .XY      -0.00000   0.00000   0.00000   0.00000  -0.00000
   18 S1      .XZ      -0.00000  -0.00000  -0.00000  -0.00000  -0.00000
   19 S1      .YZ       0.06990   0.00038  -0.00038   0.00055   0.00055
   20 C2      .S       -0.00224  -0.00361   0.00976  -0.00241   0.08804
   21 C2      .S       -0.04308   0.00601   0.01812   0.01292  -0.36507
   22 C2      .X        0.00000  -0.00000  -0.00000   0.00000  -0.00000
   23 C2      .Y        0.04896  -0.03331  -0.07102  -0.03666  -0.69624
   24 C2      .Z        0.04481  -0.01113   0.04585  -0.00658  -0.17417
   25 C2      .S        0.20436   0.11317  -0.19900  -0.04083  -0.51007
   26 C2      .X       -0.00000  -0.00000  -0.00000  -0.00000   0.00000
   27 C2      .Y       -0.09040  -0.05513   0.12647   0.05014  -0.28886
   28 C2      .Z       -0.07546  -0.04398   0.10640   0.03253  -0.08672
   29 C2      .XX      -0.00354   0.00183   0.00154   0.00146  -0.01413
   30 C2      .YY       0.00164   0.00187  -0.00028   0.00132  -0.03566
   31 C2      .ZZ       0.00216   0.00133   0.00337   0.00129  -0.01771
   32 C2      .XY       0.00000   0.00000  -0.00000   0.00000  -0.00000
   33 C2      .XZ       0.00000  -0.00000   0.00000   0.00000  -0.00000
   34 C2      .YZ      -0.00455   0.00042  -0.00081  -0.00016  -0.00866
   35 C3      .S        0.08588   0.00976  -0.00361  -0.08804   0.00241
   36 C3      .S       -0.34270   0.01812   0.00601   0.36507  -0.01292
   37 C3      .X       -0.00000  -0.00000   0.00000  -0.00000  -0.00000
   38 C3      .Y       -0.43471   0.07102   0.03331  -0.69624  -0.03666
   39 C3      .Z       -0.50264   0.04585  -0.01113   0.17417   0.00658
   40 C3      .S       -0.45502  -0.19900   0.11317   0.51007   0.04083
   41 C3      .X       -0.00000  -0.00000  -0.00000  -0.00000   0.00000
   42 C3      .Y       -0.39818  -0.12647   0.05513  -0.28886   0.05014
   43 C3      .Z       -0.14463   0.10640  -0.04398   0.08672  -0.03253
   44 C3      .XX      -0.00805   0.00154   0.00183   0.01413  -0.00146
   45 C3      .YY      -0.04292  -0.00028   0.00187   0.03566  -0.00132
   46 C3      .ZZ      -0.03971   0.00337   0.00133   0.01771  -0.00129
   47 C3      .XY      -0.00000  -0.00000   0.00000  -0.00000   0.00000
   48 C3      .XZ      -0.00000  -0.00000   0.00000   0.00000   0.00000
   49 C3      .YZ      -0.03457   0.00081  -0.00042  -0.00866  -0.00016
   50 C4      .S        0.00075   0.00781  -0.08518  -0.00363  -0.01009
   51 C4      .S        0.01031   0.03332   0.33327  -0.00668  -0.03545
   52 C4      .X       -0.00000  -0.00000   0.00000  -0.00000  -0.00000
   53 C4      .Y        0.00194   0.01226   0.42067  -0.01567   0.08868
   54 C4      .Z        0.00854   0.07739  -0.61599   0.03163  -0.02911
   55 C4      .S       -0.13506  -0.22692   0.70977   0.15388   0.14671
   56 C4      .X        0.00000  -0.00000  -0.00000   0.00000  -0.00000
   57 C4      .Y        0.00258   0.10466   0.10231  -0.05123  -0.07009
   58 C4      .Z       -0.13716  -0.14144  -0.10682   0.04942   0.11632
   59 C4      .XX       0.00004  -0.00146   0.02340   0.00379  -0.00042
   60 C4      .YY      -0.00195  -0.00077   0.03162   0.00357  -0.00089
   61 C4      .ZZ      -0.00061  -0.00242   0.04072   0.00367   0.00126
   62 C4      .XY      -0.00000   0.00000   0.00000   0.00000   0.00000
   63 C4      .XZ       0.00000   0.00000  -0.00000   0.00000  -0.00000
   64 C4      .YZ      -0.00054   0.00175  -0.01345  -0.00041  -0.00174
   65 C5      .S       -0.00674  -0.08518   0.00781   0.01009   0.00363
   66 C5      .S       -0.01833   0.33327   0.03332   0.03545   0.00668
   67 C5      .X       -0.00000  -0.00000  -0.00000  -0.00000  -0.00000
   68 C5      .Y        0.09503  -0.42067  -0.01226   0.08868  -0.01567
   69 C5      .Z        0.04975  -0.61599   0.07739   0.02911  -0.03163
   70 C5      .S        0.21961   0.70977  -0.22692  -0.14671  -0.15388
   71 C5      .X       -0.00000   0.00000   0.00000  -0.00000   0.00000
   72 C5      .Y       -0.03901  -0.10231  -0.10466  -0.07009  -0.05123
   73 C5      .Z        0.16579  -0.10682  -0.14144  -0.11632  -0.04942
   74 C5      .XX       0.00107   0.02340  -0.00146   0.00042  -0.00379
   75 C5      .YY       0.00510   0.03162  -0.00077   0.00089  -0.00357
   76 C5      .ZZ      -0.00135   0.04072  -0.00242  -0.00126  -0.00367
   77 C5      .XY      -0.00000  -0.00000  -0.00000  -0.00000   0.00000
   78 C5      .XZ       0.00000   0.00000   0.00000   0.00000   0.00000
   79 C5      .YZ       0.00093   0.01345  -0.00175  -0.00174  -0.00041
   80 H6      .S        0.00516   0.00608   0.00428   0.00003   0.91295
   81 H6      .S        0.02617   0.00696  -0.05353  -0.02858   0.50069
   82 H7      .S       -0.04013   0.00428   0.00608  -0.91295  -0.00003
   83 H7      .S       -0.02975  -0.05353   0.00696  -0.50069   0.02858
   84 H8      .S       -0.00674   0.00172  -0.86386   0.00384  -0.00423
   85 H8      .S       -0.03679  -0.06084  -0.49707   0.00533   0.05551
   86 H9      .S        0.00174  -0.86386   0.00172   0.00423  -0.00384
   87 H9      .S        0.00122  -0.49707  -0.06084  -0.05551  -0.00533
                          31        32        33        34        35
                           V         V         V         V         V    
     Eigenvalues --    16.48032  18.53811  18.53811  12.18162  13.84383
    1 S1      .S       -0.00000   0.00018   0.00018   0.00000  -0.03430
    2 S1      .S        0.00000  -0.00273  -0.00273  -0.00000  -0.02210
    3 S1      .X       -0.00000  -0.00000   0.00000  -0.00000  -0.00000
    4 S1      .Y        0.00551   0.01202  -0.01202   0.17664  -0.00000
    5 S1      .Z       -0.00000   0.01285   0.01285   0.00000  -0.03647
    6 S1      .S       -0.00000  -0.00545  -0.00545  -0.00000  -1.17546
    7 S1      .X        0.00000  -0.00000  -0.00000   0.00000   0.00000
    8 S1      .Y       -0.03108  -0.05876   0.05876  -0.79184  -0.00000
    9 S1      .Z        0.00000  -0.03945  -0.03945  -0.00000   0.13205
   10 S1      .S       -0.00000  -0.01139  -0.01139   0.00000   3.96080
   11 S1      .X       -0.00000  -0.00000   0.00000  -0.00000  -0.00000
   12 S1      .Y       -0.02434   0.05754  -0.05754   2.57925  -0.00000
   13 S1      .Z        0.00000  -0.01015  -0.01015  -0.00000  -2.45059
   14 S1      .XX       0.00000  -0.00029  -0.00029  -0.00000   0.43124
   15 S1      .YY       0.00000  -0.00149  -0.00149   0.00000  -0.37520
   16 S1      .ZZ       0.00000  -0.00078  -0.00078   0.00000   0.19904
   17 S1      .XY       0.00000   0.00000   0.00000  -0.00000   0.00000
   18 S1      .XZ      -0.00000   0.00000  -0.00000  -0.00000  -0.00000
   19 S1      .YZ      -0.00112   0.00056  -0.00056  -0.14298  -0.00000
   20 C2      .S        0.00580   0.09750   0.00173   0.01358   0.05734
   21 C2      .S       -0.00273  -0.59565   0.00800   0.12171   0.40840
   22 C2      .X       -0.00000  -0.00000   0.00000   0.00000   0.00000
   23 C2      .Y        0.10410   0.28050  -0.01396  -0.01446  -0.09972
   24 C2      .Z       -0.03364   0.72129  -0.00811   0.06021   0.05400
   25 C2      .S       -0.03063   0.00502  -0.25383  -0.23492  -2.42844
   26 C2      .X        0.00000   0.00000  -0.00000  -0.00000  -0.00000
   27 C2      .Y       -0.09772   0.07200   0.09595  -0.29792   1.34675
   28 C2      .Z        0.08340   0.18745   0.15702  -1.44267  -0.30323
   29 C2      .XX       0.00042  -0.01883  -0.00110   0.01378   0.02365
   30 C2      .YY       0.00117  -0.03089  -0.00108  -0.00304   0.03563
   31 C2      .ZZ       0.00242  -0.04546  -0.00073  -0.00308   0.05301
   32 C2      .XY       0.00000  -0.00000   0.00000  -0.00000   0.00000
   33 C2      .XZ      -0.00000   0.00000   0.00000  -0.00000  -0.00000
   34 C2      .YZ       0.00207  -0.01417   0.00020   0.01431  -0.02847
   35 C3      .S       -0.00580   0.00173   0.09750  -0.01358   0.05734
   36 C3      .S        0.00273   0.00800  -0.59565  -0.12171   0.40840
   37 C3      .X        0.00000  -0.00000   0.00000   0.00000  -0.00000
   38 C3      .Y        0.10410   0.01396  -0.28050  -0.01446   0.09972
   39 C3      .Z        0.03364  -0.00811   0.72129  -0.06021   0.05400
   40 C3      .S        0.03063  -0.25383   0.00502   0.23492  -2.42844
   41 C3      .X        0.00000   0.00000  -0.00000   0.00000   0.00000
   42 C3      .Y       -0.09772  -0.09595  -0.07200  -0.29792  -1.34675
   43 C3      .Z       -0.08340   0.15702   0.18745   1.44267  -0.30323
   44 C3      .XX      -0.00042  -0.00110  -0.01883  -0.01378   0.02365
   45 C3      .YY      -0.00117  -0.00108  -0.03089   0.00304   0.03563
   46 C3      .ZZ      -0.00242  -0.00073  -0.04546   0.00308   0.05301
   47 C3      .XY      -0.00000   0.00000  -0.00000  -0.00000   0.00000
   48 C3      .XZ      -0.00000   0.00000   0.00000  -0.00000  -0.00000
   49 C3      .YZ       0.00207  -0.00020   0.01417   0.01431   0.02847
   50 C4      .S       -0.09068  -0.08997   0.00202   0.00484   0.00654
   51 C4      .S        0.54863   0.64844  -0.03130   0.06311   0.03659
   52 C4      .X       -0.00000  -0.00000  -0.00000  -0.00000  -0.00000
   53 C4      .Y       -0.77953   0.34247  -0.00975   0.00327   0.04504
   54 C4      .Z       -0.03481   0.77643  -0.10340  -0.03631   0.05270
   55 C4      .S        0.09267  -0.04382   0.28209  -1.04368   0.25167
   56 C4      .X       -0.00000   0.00000   0.00000   0.00000   0.00000
   57 C4      .Y       -0.13721   0.12037   0.02563  -0.33156  -0.19298
   58 C4      .Z        0.00511   0.00690   0.30414  -0.68267   0.30519
   59 C4      .XX       0.01460   0.02194   0.00661  -0.02940   0.00198
   60 C4      .YY       0.04828   0.02581   0.00985  -0.02398   0.00295
   61 C4      .ZZ       0.01722   0.05195   0.00588  -0.02570   0.01357
   62 C4      .XY       0.00000   0.00000   0.00000  -0.00000  -0.00000
   63 C4      .XZ      -0.00000   0.00000   0.00000  -0.00000   0.00000
   64 C4      .YZ      -0.00263   0.01042  -0.00093  -0.00074  -0.00181
   65 C5      .S        0.09068   0.00202  -0.08997  -0.00484   0.00654
   66 C5      .S       -0.54863  -0.03130   0.64844  -0.06311   0.03659
   67 C5      .X        0.00000   0.00000  -0.00000   0.00000  -0.00000
   68 C5      .Y       -0.77953   0.00975  -0.34247   0.00327  -0.04504
   69 C5      .Z        0.03481  -0.10340   0.77643   0.03631   0.05270
   70 C5      .S       -0.09267   0.28209  -0.04382   1.04368   0.25167
   71 C5      .X        0.00000  -0.00000  -0.00000  -0.00000  -0.00000
   72 C5      .Y       -0.13721  -0.02563  -0.12037  -0.33156   0.19298
   73 C5      .Z       -0.00511   0.30414   0.00690   0.68267   0.30519
   74 C5      .XX      -0.01460   0.00661   0.02194   0.02940   0.00198
   75 C5      .YY      -0.04828   0.00985   0.02581   0.02398   0.00295
   76 C5      .ZZ      -0.01722   0.00588   0.05195   0.02570   0.01357
   77 C5      .XY       0.00000  -0.00000  -0.00000   0.00000   0.00000
   78 C5      .XZ      -0.00000   0.00000   0.00000  -0.00000   0.00000
   79 C5      .YZ      -0.00263   0.00093  -0.01042  -0.00074   0.00181
   80 H6      .S        0.00853  -0.05205  -0.00156   0.13694  -0.01282
   81 H6      .S        0.05160   0.01324  -0.03018   0.04074  -0.35538
   82 H7      .S       -0.00853  -0.00156  -0.05205  -0.13694  -0.01282
   83 H7      .S       -0.05160  -0.03018   0.01324  -0.04074  -0.35538
   84 H8      .S        0.03593   0.03138   0.01852   0.00069   0.02793
   85 H8      .S       -0.03919  -0.08345   0.08418  -0.06578   0.12448
   86 H9      .S       -0.03593   0.01852   0.03138  -0.00069   0.02793
   87 H9      .S        0.03919   0.08418  -0.08345   0.06578   0.12448
                          36        37        38        39        40
                           V         V         V         V         V    
     Eigenvalues --    15.69605  16.31915  16.31915  16.52546  16.52546
    1 S1      .S       -0.00000   0.00444   0.00444  -0.00166  -0.00166
    2 S1      .S        0.00000  -0.00721  -0.00721  -0.00735  -0.00735
    3 S1      .X        0.19776  -0.00000   0.00000   0.00000  -0.00000
    4 S1      .Y        0.00000  -0.01326   0.01326  -0.00723   0.00723
    5 S1      .Z        0.00000   0.01770   0.01770  -0.00446  -0.00446
    6 S1      .S       -0.00000   0.10364   0.10364  -0.08134  -0.08134
    7 S1      .X       -0.82622  -0.00000   0.00000  -0.00000   0.00000
    8 S1      .Y       -0.00000   0.06184  -0.06184   0.06007  -0.06007
    9 S1      .Z       -0.00000  -0.11197  -0.11197   0.04878   0.04878
   10 S1      .S        0.00000   0.21462   0.21462  -0.09482  -0.09482
   11 S1      .X        1.06180   0.00000  -0.00000   0.00000  -0.00000
   12 S1      .Y        0.00000   0.08459  -0.08459  -0.01854   0.01854
   13 S1      .Z        0.00000  -0.10396  -0.10396   0.03822   0.03822
   14 S1      .XX       0.00000  -0.00344  -0.00344   0.00188   0.00188
   15 S1      .YY       0.00000  -0.00344  -0.00344   0.00188   0.00188
   16 S1      .ZZ       0.00000  -0.00344  -0.00344   0.00188   0.00188
   17 S1      .XY      -0.00000   0.00000  -0.00000   0.00000  -0.00000
   18 S1      .XZ       0.66186  -0.00000   0.00000   0.00000  -0.00000
   19 S1      .YZ       0.00000   0.00000   0.00000  -0.00000   0.00000
   20 C2      .S       -0.00000  -0.01201  -0.00813  -0.00779  -0.01120
   21 C2      .S        0.00000  -0.12844  -0.04026  -0.03781  -0.03988
   22 C2      .X        0.02026   0.00000   0.00000  -0.00000  -0.00000
   23 C2      .Y        0.00000  -0.20475   0.01566   0.00994  -0.02145
   24 C2      .Z        0.00000  -0.00961  -0.01020   0.03378  -0.05248
   25 C2      .S        0.00000   0.76725   0.18967  -0.35390   1.08945
   26 C2      .X       -0.19188  -0.00000   0.00000   0.00000  -0.00000
   27 C2      .Y       -0.00000   1.88770  -0.28736   0.08463  -0.84676
   28 C2      .Z       -0.00000   0.53517  -0.10640   0.10450  -0.40152
   29 C2      .XX      -0.00000  -0.00866  -0.00300  -0.00655   0.00341
   30 C2      .YY      -0.00000  -0.00866  -0.00300  -0.00655   0.00341
   31 C2      .ZZ      -0.00000  -0.00866  -0.00300  -0.00655   0.00341
   32 C2      .XY      -0.03207   0.00000   0.00000  -0.00000   0.00000
   33 C2      .XZ       0.01885   0.00000   0.00000  -0.00000   0.00000
   34 C2      .YZ      -0.00000   0.00000  -0.00000  -0.00000   0.00000
   35 C3      .S        0.00000  -0.00813  -0.01201  -0.01120  -0.00779
   36 C3      .S       -0.00000  -0.04026  -0.12844  -0.03988  -0.03781
   37 C3      .X        0.02026  -0.00000  -0.00000  -0.00000  -0.00000
   38 C3      .Y        0.00000  -0.01566   0.20475   0.02145  -0.00994
   39 C3      .Z       -0.00000  -0.01020  -0.00961  -0.05248   0.03378
   40 C3      .S       -0.00000   0.18967   0.76725   1.08945  -0.35390
   41 C3      .X       -0.19188  -0.00000   0.00000   0.00000   0.00000
   42 C3      .Y       -0.00000   0.28736  -1.88770   0.84676  -0.08463
   43 C3      .Z        0.00000  -0.10640   0.53517  -0.40152   0.10450
   44 C3      .XX       0.00000  -0.00300  -0.00866   0.00341  -0.00655
   45 C3      .YY       0.00000  -0.00300  -0.00866   0.00341  -0.00655
   46 C3      .ZZ       0.00000  -0.00300  -0.00866   0.00341  -0.00655
   47 C3      .XY       0.03207  -0.00000  -0.00000  -0.00000   0.00000
   48 C3      .XZ       0.01885  -0.00000  -0.00000   0.00000   0.00000
   49 C3      .YZ      -0.00000   0.00000  -0.00000   0.00000   0.00000
   50 C4      .S        0.00000  -0.00749  -0.00713  -0.00913  -0.00015
   51 C4      .S        0.00000  -0.06832  -0.01045  -0.10002  -0.10901
   52 C4      .X        0.00580  -0.00000  -0.00000   0.00000   0.00000
   53 C4      .Y       -0.00000   0.00893   0.02279  -0.04659  -0.14351
   54 C4      .Z        0.00000   0.02542  -0.01303  -0.00269   0.20586
   55 C4      .S       -0.00000   0.81764  -0.44695   1.13502  -0.02896
   56 C4      .X        0.00433   0.00000  -0.00000  -0.00000   0.00000
   57 C4      .Y        0.00000  -0.38845   0.07220  -0.59079   1.44410
   58 C4      .Z       -0.00000   0.66124  -0.09276   0.77352  -2.26360
   59 C4      .XX      -0.00000   0.01588  -0.01351   0.02148  -0.01222
   60 C4      .YY      -0.00000   0.01588  -0.01351   0.02148  -0.01222
   61 C4      .ZZ       0.00000   0.01588  -0.01351   0.02148  -0.01222
   62 C4      .XY      -0.00228  -0.00000   0.00000  -0.00000   0.00000
   63 C4      .XZ      -0.00734  -0.00000   0.00000   0.00000   0.00000
   64 C4      .YZ       0.00000  -0.00000  -0.00000   0.00000  -0.00000
   65 C5      .S       -0.00000  -0.00713  -0.00749  -0.00015  -0.00913
   66 C5      .S       -0.00000  -0.01045  -0.06832  -0.10901  -0.10002
   67 C5      .X        0.00580   0.00000   0.00000  -0.00000  -0.00000
   68 C5      .Y        0.00000  -0.02279  -0.00893   0.14351   0.04659
   69 C5      .Z       -0.00000  -0.01303   0.02542   0.20586  -0.00269
   70 C5      .S        0.00000  -0.44695   0.81764  -0.02896   1.13502
   71 C5      .X        0.00433  -0.00000  -0.00000   0.00000   0.00000
   72 C5      .Y        0.00000  -0.07220   0.38845  -1.44410   0.59079
   73 C5      .Z        0.00000  -0.09276   0.66124  -2.26360   0.77352
   74 C5      .XX      -0.00000  -0.01351   0.01588  -0.01222   0.02148
   75 C5      .YY      -0.00000  -0.01351   0.01588  -0.01222   0.02148
   76 C5      .ZZ      -0.00000  -0.01351   0.01588  -0.01222   0.02148
   77 C5      .XY       0.00228  -0.00000  -0.00000   0.00000  -0.00000
   78 C5      .XZ      -0.00734  -0.00000  -0.00000   0.00000   0.00000
   79 C5      .YZ       0.00000   0.00000   0.00000  -0.00000   0.00000
   80 H6      .S        0.00000   0.86402   0.03190   0.00793   0.05964
   81 H6      .S        0.00000  -2.96185   0.13844   0.01408   0.32526
   82 H7      .S       -0.00000   0.03190   0.86402   0.05964   0.00793
   83 H7      .S       -0.00000   0.13844  -2.96185   0.32526   0.01408
   84 H8      .S        0.00000   0.05375   0.01304   0.05993   0.83427
   85 H8      .S       -0.00000   0.29106   0.02056   0.34312  -3.18635
   86 H9      .S        0.00000   0.01304   0.05375   0.83427   0.05993
   87 H9      .S        0.00000   0.02056   0.29106  -3.18635   0.34312
                          41        42        43        44        45
                           V         V         V         V         V    
     Eigenvalues --    17.37366  19.96973  19.96973  21.17253  21.45924
    1 S1      .S       -0.03008   0.00558   0.00558   0.00000  -0.00212
    2 S1      .S        0.03250  -0.00903  -0.00903  -0.00000   0.00631
    3 S1      .X       -0.00000   0.00000   0.00000  -0.18117  -0.00000
    4 S1      .Y        0.00000   0.02764  -0.02764   0.00000  -0.03538
    5 S1      .Z        0.18553   0.01062   0.01062   0.00000  -0.05496
    6 S1      .S       -0.57254   0.13290   0.13290   0.00000  -0.02182
    7 S1      .X        0.00000  -0.00000   0.00000   0.76338   0.00000
    8 S1      .Y       -0.00000  -0.14997   0.14997   0.00000   0.08765
    9 S1      .Z       -0.78690  -0.06224  -0.06224  -0.00000   0.27050
   10 S1      .S        1.30899   0.14220   0.14220   0.00000  -0.20662
   11 S1      .X       -0.00000   0.00000   0.00000  -1.13866  -0.00000
   12 S1      .Y        0.00000  -0.26489   0.26489  -0.00000   0.49855
   13 S1      .Z        0.78977  -0.04121  -0.04121  -0.00000   0.31133
   14 S1      .XX       0.18023  -0.00150  -0.00150  -0.00000  -0.00919
   15 S1      .YY       0.24104  -0.00085  -0.00085  -0.00000  -0.03333
   16 S1      .ZZ      -0.70693  -0.00222  -0.00222  -0.00000  -0.02321
   17 S1      .XY      -0.00000  -0.00000   0.00000  -0.00000   0.00000
   18 S1      .XZ      -0.00000  -0.00000  -0.00000   0.78779   0.00000
   19 S1      .YZ      -0.00000   0.00246  -0.00246  -0.00000   0.02114
   20 C2      .S        0.00861   0.00507  -0.01431   0.00000  -0.04862
   21 C2      .S        0.05559  -0.05563   0.04860  -0.00000  -0.85955
   22 C2      .X        0.00000   0.00000   0.00000  -0.05752  -0.00000
   23 C2      .Y        0.00937   0.03864  -0.00159  -0.00000   0.33020
   24 C2      .Z        0.05947   0.06397  -0.12940  -0.00000   0.67195
   25 C2      .S        0.04121  -1.01967   2.55884  -0.00000   3.66522
   26 C2      .X       -0.00000  -0.00000  -0.00000   0.44661  -0.00000
   27 C2      .Y       -0.12143  -0.07560   0.38120   0.00000  -2.38382
   28 C2      .Z       -0.68878   0.64047  -1.55144   0.00000  -3.41082
   29 C2      .XX      -0.00994  -0.01156   0.03068   0.00000  -0.02544
   30 C2      .YY       0.04027  -0.01027   0.03283   0.00000  -0.05406
   31 C2      .ZZ       0.00384  -0.01251   0.05763   0.00000   0.11889
   32 C2      .XY       0.00000  -0.00000   0.00000  -0.03818   0.00000
   33 C2      .XZ      -0.00000   0.00000   0.00000   0.02244   0.00000
   34 C2      .YZ      -0.00940   0.00167   0.01773  -0.00000  -0.16005
   35 C3      .S        0.00861  -0.01431   0.00507  -0.00000   0.00644
   36 C3      .S        0.05559   0.04860  -0.05563   0.00000   0.05251
   37 C3      .X        0.00000   0.00000   0.00000  -0.05752  -0.00000
   38 C3      .Y       -0.00937   0.00159  -0.03864  -0.00000   0.02275
   39 C3      .Z        0.05947  -0.12940   0.06397   0.00000   0.04765
   40 C3      .S        0.04121   2.55884  -1.01967   0.00000  -0.41164
   41 C3      .X       -0.00000  -0.00000  -0.00000   0.44661  -0.00000
   42 C3      .Y        0.12143  -0.38120   0.07560   0.00000  -0.50636
   43 C3      .Z       -0.68878  -1.55144   0.64047  -0.00000   0.71936
   44 C3      .XX      -0.00994   0.03068  -0.01156  -0.00000   0.00137
   45 C3      .YY       0.04027   0.03283  -0.01027  -0.00000   0.00105
   46 C3      .ZZ       0.00384   0.05763  -0.01251  -0.00000   0.00038
   47 C3      .XY      -0.00000  -0.00000   0.00000   0.03818  -0.00000
   48 C3      .XZ      -0.00000  -0.00000  -0.00000   0.02244  -0.00000
   49 C3      .YZ       0.00940  -0.01773  -0.00167  -0.00000  -0.00137
   50 C4      .S       -0.00027   0.00401  -0.01357  -0.00000   0.01471
   51 C4      .S        0.03188   0.02664   0.08274   0.00000   0.22755
   52 C4      .X        0.00000  -0.00000  -0.00000  -0.01224   0.00000
   53 C4      .Y        0.01160   0.09855   0.59270  -0.00000  -0.06650
   54 C4      .Z       -0.02458   0.08682   0.49350   0.00000  -0.05338
   55 C4      .S       -0.55141  -1.41460  -0.17645   0.00000  -3.73201
   56 C4      .X        0.00000   0.00000   0.00000  -0.07178   0.00000
   57 C4      .Y       -0.23709   1.38731  -3.13674  -0.00000  -0.53345
   58 C4      .Z       -0.09878   1.52778  -2.78680   0.00000  -2.27879
   59 C4      .XX      -0.00771  -0.03539  -0.10921  -0.00000  -0.08565
   60 C4      .YY      -0.00753  -0.07312   0.05545  -0.00000  -0.10021
   61 C4      .ZZ      -0.03195  -0.03814  -0.15416  -0.00000  -0.06743
   62 C4      .XY       0.00000  -0.00000  -0.00000  -0.00272  -0.00000
   63 C4      .XZ      -0.00000  -0.00000   0.00000  -0.00873   0.00000
   64 C4      .YZ       0.01064   0.00824  -0.07704  -0.00000  -0.01855
   65 C5      .S       -0.00027  -0.01357   0.00401  -0.00000   0.01687
   66 C5      .S        0.03188   0.08274   0.02664   0.00000   0.01517
   67 C5      .X        0.00000  -0.00000   0.00000  -0.01224   0.00000
   68 C5      .Y       -0.01160  -0.59270  -0.09855  -0.00000   0.01549
   69 C5      .Z       -0.02458   0.49350   0.08682   0.00000  -0.00776
   70 C5      .S       -0.55141  -0.17645  -1.41460  -0.00000   0.76757
   71 C5      .X       -0.00000   0.00000   0.00000  -0.07178   0.00000
   72 C5      .Y        0.23709   3.13674  -1.38731   0.00000  -0.27435
   73 C5      .Z       -0.09878  -2.78680   1.52778  -0.00000   0.64939
   74 C5      .XX      -0.00771  -0.10921  -0.03539  -0.00000   0.02469
   75 C5      .YY      -0.00753   0.05545  -0.07312  -0.00000   0.02459
   76 C5      .ZZ      -0.03195  -0.15416  -0.03814  -0.00000   0.02230
   77 C5      .XY       0.00000  -0.00000  -0.00000   0.00272   0.00000
   78 C5      .XZ      -0.00000   0.00000   0.00000  -0.00873  -0.00000
   79 C5      .YZ      -0.01064   0.07704  -0.00824   0.00000  -0.00628
   80 H6      .S        0.03562   0.03783  -0.14921  -0.00000   0.30319
   81 H6      .S        0.14483   0.05253  -0.16271  -0.00000   0.96579
   82 H7      .S        0.03562  -0.14921   0.03783  -0.00000  -0.09093
   83 H7      .S        0.14483  -0.16271   0.05253   0.00000  -0.25384
   84 H8      .S        0.04790   0.17726  -0.09035  -0.00000  -0.02904
   85 H8      .S        0.06021   0.22834  -0.26044  -0.00000  -0.38885
   86 H9      .S        0.04790  -0.09035   0.17726  -0.00000  -0.01307
   87 H9      .S        0.06021  -0.26044   0.22834  -0.00000   0.01683
                          46        47        48        49        50
                           V         V         V         V         V    
     Eigenvalues --    21.45924  21.73315  24.70794  29.49352  29.49352
    1 S1      .S       -0.00212  -0.00609  -0.00000  -0.00328  -0.00328
    2 S1      .S        0.00631   0.03688   0.00000   0.00573   0.00573
    3 S1      .X        0.00000  -0.00000  -0.00000  -0.00000  -0.00000
    4 S1      .Y        0.03538   0.00000   0.00000   0.00106  -0.00106
    5 S1      .Z       -0.05496   0.14975   0.00000  -0.00496  -0.00496
    6 S1      .S       -0.02182   0.02999  -0.00000  -0.06223  -0.06223
    7 S1      .X       -0.00000   0.00000   0.00000   0.00000   0.00000
    8 S1      .Y       -0.08765  -0.00000  -0.00000   0.03463  -0.03463
    9 S1      .Z        0.27050  -0.66438  -0.00000   0.01990   0.01990
   10 S1      .S       -0.20662  -0.25674  -0.00000  -0.17822  -0.17822
   11 S1      .X        0.00000  -0.00000  -0.00000   0.00000  -0.00000
   12 S1      .Y       -0.49855  -0.00000   0.00000  -0.09700   0.09700
   13 S1      .Z        0.31133   0.89000   0.00000   0.04616   0.04616
   14 S1      .XX      -0.00919   0.00312   0.00000  -0.00252  -0.00252
   15 S1      .YY      -0.03333  -0.82500   0.00000   0.00233   0.00233
   16 S1      .ZZ      -0.02321   0.71296   0.00000  -0.01428  -0.01428
   17 S1      .XY      -0.00000  -0.00000   1.02895  -0.00000  -0.00000
   18 S1      .XZ      -0.00000   0.00000   0.00000   0.00000   0.00000
   19 S1      .YZ      -0.02114   0.00000   0.00000   0.00145  -0.00145
   20 C2      .S        0.00644   0.00147   0.00000   0.03891  -0.00046
   21 C2      .S        0.05251  -0.01596  -0.00000   0.10670  -0.02589
   22 C2      .X       -0.00000   0.00000   0.02937  -0.00000  -0.00000
   23 C2      .Y       -0.02275  -0.04082  -0.00000  -0.07920   0.01051
   24 C2      .Z        0.04765  -0.03169  -0.00000   0.00412  -0.02878
   25 C2      .S       -0.41164   0.04551  -0.00000  -1.78891   0.24363
   26 C2      .X       -0.00000   0.00000  -0.21713  -0.00000   0.00000
   27 C2      .Y        0.50636   0.45889  -0.00000   0.36513  -0.61514
   28 C2      .Z        0.71936   0.52778   0.00000   1.07089  -0.02414
   29 C2      .XX       0.00137   0.01229   0.00000   0.00144  -0.00499
   30 C2      .YY       0.00105  -0.02396   0.00000   0.04970  -0.00263
   31 C2      .ZZ       0.00038   0.03039   0.00000   0.07568  -0.00083
   32 C2      .XY       0.00000  -0.00000   0.03922  -0.00000   0.00000
   33 C2      .XZ      -0.00000   0.00000  -0.03518   0.00000   0.00000
   34 C2      .YZ       0.00137  -0.02238   0.00000   0.07268  -0.00409
   35 C3      .S       -0.04862   0.00147  -0.00000  -0.00046   0.03891
   36 C3      .S       -0.85955  -0.01596  -0.00000  -0.02589   0.10670
   37 C3      .X       -0.00000   0.00000  -0.02937  -0.00000  -0.00000
   38 C3      .Y       -0.33020   0.04082   0.00000  -0.01051   0.07920
   39 C3      .Z        0.67195  -0.03169  -0.00000  -0.02878   0.00412
   40 C3      .S        3.66522   0.04551   0.00000   0.24363  -1.78891
   41 C3      .X        0.00000  -0.00000   0.21713  -0.00000   0.00000
   42 C3      .Y        2.38382  -0.45889  -0.00000   0.61514  -0.36513
   43 C3      .Z       -3.41082   0.52778   0.00000  -0.02414   1.07089
   44 C3      .XX      -0.02544   0.01229   0.00000  -0.00499   0.00144
   45 C3      .YY      -0.05406  -0.02396  -0.00000  -0.00263   0.04970
   46 C3      .ZZ       0.11889   0.03039  -0.00000  -0.00083   0.07568
   47 C3      .XY       0.00000  -0.00000   0.03922  -0.00000   0.00000
   48 C3      .XZ      -0.00000   0.00000   0.03518  -0.00000  -0.00000
   49 C3      .YZ       0.16005   0.02238   0.00000   0.00409  -0.07268
   50 C4      .S        0.01687  -0.01145  -0.00000  -0.07051   0.02867
   51 C4      .S        0.01517  -0.09712  -0.00000  -1.78110   0.21584
   52 C4      .X        0.00000  -0.00000  -0.01788  -0.00000   0.00000
   53 C4      .Y       -0.01549   0.00002  -0.00000  -0.27740   0.15754
   54 C4      .Z       -0.00776   0.04508   0.00000   0.22862   0.02435
   55 C4      .S        0.76757   0.64877   0.00000   5.99445  -2.08512
   56 C4      .X        0.00000  -0.00000   0.14719   0.00000  -0.00000
   57 C4      .Y        0.27435  -0.01300   0.00000  -0.13788   1.38234
   58 C4      .Z        0.64939   0.34630   0.00000   0.08873  -0.23623
   59 C4      .XX       0.02469  -0.00355  -0.00000   0.15552  -0.05402
   60 C4      .YY       0.02459  -0.00418  -0.00000   0.22651  -0.11748
   61 C4      .ZZ       0.02230   0.03091  -0.00000  -0.44005  -0.03747
   62 C4      .XY      -0.00000   0.00000  -0.00484  -0.00000  -0.00000
   63 C4      .XZ       0.00000   0.00000   0.00828   0.00000   0.00000
   64 C4      .YZ       0.00628  -0.01244   0.00000   0.01910  -0.00823
   65 C5      .S        0.01471  -0.01145   0.00000   0.02867  -0.07051
   66 C5      .S        0.22755  -0.09712  -0.00000   0.21584  -1.78110
   67 C5      .X       -0.00000   0.00000   0.01788   0.00000  -0.00000
   68 C5      .Y        0.06650  -0.00002  -0.00000  -0.15754   0.27740
   69 C5      .Z       -0.05338   0.04508   0.00000   0.02435   0.22862
   70 C5      .S       -3.73201   0.64877  -0.00000  -2.08512   5.99445
   71 C5      .X       -0.00000   0.00000  -0.14719  -0.00000  -0.00000
   72 C5      .Y        0.53345   0.01300   0.00000  -1.38234   0.13788
   73 C5      .Z       -2.27879   0.34630   0.00000  -0.23623   0.08873
   74 C5      .XX      -0.08565  -0.00355   0.00000  -0.05402   0.15552
   75 C5      .YY      -0.10021  -0.00418   0.00000  -0.11748   0.22651
   76 C5      .ZZ      -0.06743   0.03091   0.00000  -0.03747  -0.44005
   77 C5      .XY       0.00000  -0.00000  -0.00484   0.00000  -0.00000
   78 C5      .XZ      -0.00000  -0.00000  -0.00828   0.00000   0.00000
   79 C5      .YZ       0.01855   0.01244  -0.00000   0.00823  -0.01910
   80 H6      .S       -0.09093  -0.04660  -0.00000   0.01156   0.06737
   81 H6      .S       -0.25384  -0.38787   0.00000  -0.02446   0.20206
   82 H7      .S        0.30319  -0.04660   0.00000   0.06737   0.01156
   83 H7      .S        0.96579  -0.38787  -0.00000   0.20206  -0.02446
   84 H8      .S       -0.01307   0.00177   0.00000  -0.22641   0.00447
   85 H8      .S        0.01683   0.06638  -0.00000  -1.03273  -0.18575
   86 H9      .S       -0.02904   0.00177  -0.00000   0.00447  -0.22641
   87 H9      .S       -0.38885   0.06638   0.00000  -0.18575  -1.03273
                          51        52        53        54        55
                           V         V         V         V         V    
     Eigenvalues --    31.00904  31.00904  32.09275  32.09275  33.41631
    1 S1      .S       -0.00746  -0.00746   0.00000  -0.00000  -0.02665
    2 S1      .S        0.03981   0.03981  -0.00000   0.00000   0.02439
    3 S1      .X        0.00000  -0.00000  -0.00217   0.00217  -0.00000
    4 S1      .Y       -0.02317   0.02317   0.00000   0.00000  -0.07334
    5 S1      .Z        0.00771   0.00771   0.00000   0.00000  -0.05774
    6 S1      .S       -0.16303  -0.16303   0.00000  -0.00000  -0.69309
    7 S1      .X       -0.00000   0.00000   0.01677  -0.01677   0.00000
    8 S1      .Y        0.10821  -0.10821  -0.00000   0.00000   0.47992
    9 S1      .Z       -0.01707  -0.01707  -0.00000  -0.00000   0.42797
   10 S1      .S       -0.31100  -0.31100   0.00000   0.00000  -1.11609
   11 S1      .X       -0.00000   0.00000  -0.03270   0.03270   0.00000
   12 S1      .Y        0.16045  -0.16045   0.00000   0.00000   0.38692
   13 S1      .Z        0.22127   0.22127   0.00000  -0.00000   0.54520
   14 S1      .XX       0.03047   0.03047  -0.00000  -0.00000   0.00629
   15 S1      .YY       0.07703   0.07703  -0.00000   0.00000  -0.02236
   16 S1      .ZZ       0.07530   0.07530  -0.00000   0.00000   0.00469
   17 S1      .XY      -0.00000  -0.00000   0.00137   0.00137  -0.00000
   18 S1      .XZ      -0.00000  -0.00000   0.00630  -0.00630   0.00000
   19 S1      .YZ       0.04555  -0.04555  -0.00000  -0.00000  -0.01898
   20 C2      .S        0.00060  -0.07368  -0.00000   0.00000   0.01249
   21 C2      .S       -0.00631  -1.51796   0.00000  -0.00000   0.03732
   22 C2      .X       -0.00000   0.00000   0.00083  -0.01811  -0.00000
   23 C2      .Y       -0.00122  -0.44112   0.00000  -0.00000   0.02054
   24 C2      .Z        0.02406  -0.23598   0.00000   0.00000   0.03314
   25 C2      .S       -0.47739   5.22151  -0.00000  -0.00000  -0.06991
   26 C2      .X        0.00000  -0.00000   0.12110   0.24559  -0.00000
   27 C2      .Y        0.06834   0.80190   0.00000   0.00000   0.43394
   28 C2      .Z        0.20567  -0.82988   0.00000  -0.00000   0.10844
   29 C2      .XX      -0.00208  -0.05775  -0.00000   0.00000  -0.00257
   30 C2      .YY      -0.00827  -0.26078  -0.00000  -0.00000  -0.00604
   31 C2      .ZZ      -0.00521   0.10342  -0.00000  -0.00000  -0.00295
   32 C2      .XY      -0.00000   0.00000  -0.00366   0.03325  -0.00000
   33 C2      .XZ      -0.00000  -0.00000   0.00085   0.09744  -0.00000
   34 C2      .YZ      -0.00307   0.44299  -0.00000   0.00000   0.00249
   35 C3      .S       -0.07368   0.00060   0.00000  -0.00000  -0.03977
   36 C3      .S       -1.51796  -0.00631  -0.00000  -0.00000  -0.87560
   37 C3      .X       -0.00000  -0.00000   0.01811  -0.00083   0.00000
   38 C3      .Y        0.44112   0.00122   0.00000  -0.00000  -0.72809
   39 C3      .Z       -0.23598   0.02406  -0.00000  -0.00000  -0.53734
   40 C3      .S        5.22151  -0.47739   0.00000   0.00000   2.22088
   41 C3      .X        0.00000  -0.00000  -0.24559  -0.12110  -0.00000
   42 C3      .Y       -0.80190  -0.06834   0.00000   0.00000   3.61587
   43 C3      .Z       -0.82988   0.20567  -0.00000  -0.00000   0.68615
   44 C3      .XX      -0.05775  -0.00208   0.00000  -0.00000   0.03028
   45 C3      .YY      -0.26078  -0.00827   0.00000  -0.00000  -0.33674
   46 C3      .ZZ       0.10342  -0.00521   0.00000  -0.00000   0.27229
   47 C3      .XY      -0.00000  -0.00000   0.03325  -0.00366  -0.00000
   48 C3      .XZ       0.00000   0.00000  -0.09744  -0.00085   0.00000
   49 C3      .YZ      -0.44299   0.00307  -0.00000   0.00000   0.20951
   50 C4      .S       -0.00567   0.02576  -0.00000   0.00000   0.01265
   51 C4      .S       -0.07324   0.21344  -0.00000  -0.00000   0.05253
   52 C4      .X       -0.00000  -0.00000  -0.06335   0.77720   0.00000
   53 C4      .Y       -0.01281  -0.10240   0.00000  -0.00000  -0.10292
   54 C4      .Z       -0.01050  -0.17591   0.00000   0.00000  -0.01174
   55 C4      .S        0.30825  -2.19234   0.00000   0.00000   1.20852
   56 C4      .X       -0.00000   0.00000  -0.46299  -1.20877   0.00000
   57 C4      .Y        0.04025  -0.81207  -0.00000  -0.00000  -0.40382
   58 C4      .Z        0.79935  -1.48885   0.00000   0.00000   0.06858
   59 C4      .XX      -0.00805  -0.04194  -0.00000   0.00000   0.03720
   60 C4      .YY       0.00149  -0.04594  -0.00000   0.00000   0.03968
   61 C4      .ZZ       0.00317  -0.17432  -0.00000   0.00000   0.03636
   62 C4      .XY       0.00000  -0.00000   0.06442   0.48304   0.00000
   63 C4      .XZ      -0.00000   0.00000   0.00894   0.46815  -0.00000
   64 C4      .YZ      -0.00334  -0.04358   0.00000  -0.00000   0.01485
   65 C5      .S        0.02576  -0.00567  -0.00000   0.00000   0.00771
   66 C5      .S        0.21344  -0.07324   0.00000  -0.00000   0.11280
   67 C5      .X        0.00000   0.00000  -0.77720   0.06335   0.00000
   68 C5      .Y        0.10240   0.01281   0.00000  -0.00000   0.00094
   69 C5      .Z       -0.17591  -0.01050  -0.00000   0.00000  -0.11451
   70 C5      .S       -2.19234   0.30825  -0.00000  -0.00000  -1.57912
   71 C5      .X        0.00000   0.00000   1.20877   0.46299   0.00000
   72 C5      .Y        0.81207  -0.04025  -0.00000  -0.00000  -1.50360
   73 C5      .Z       -1.48885   0.79935  -0.00000  -0.00000  -1.22965
   74 C5      .XX      -0.04194  -0.00805  -0.00000   0.00000  -0.04547
   75 C5      .YY      -0.04594   0.00149   0.00000  -0.00000  -0.07202
   76 C5      .ZZ      -0.17432   0.00317  -0.00000   0.00000  -0.02427
   77 C5      .XY      -0.00000   0.00000   0.48304   0.06442   0.00000
   78 C5      .XZ       0.00000   0.00000  -0.46815  -0.00894  -0.00000
   79 C5      .YZ       0.04358   0.00334   0.00000  -0.00000   0.05581
   80 H6      .S        0.01659  -0.37046  -0.00000   0.00000  -0.07747
   81 H6      .S       -0.02185  -1.27747  -0.00000  -0.00000  -0.22305
   82 H7      .S       -0.37046   0.01659   0.00000  -0.00000   0.53144
   83 H7      .S       -1.27747  -0.02185  -0.00000   0.00000   1.21546
   84 H8      .S        0.06532   0.05724   0.00000  -0.00000  -0.04457
   85 H8      .S        0.20429  -0.17335   0.00000   0.00000  -0.03924
   86 H9      .S        0.05724   0.06532  -0.00000  -0.00000  -0.20296
   87 H9      .S       -0.17335   0.20429  -0.00000  -0.00000  -0.52822
                          56        57        58        59        60
                           V         V         V         V         V    
     Eigenvalues --    33.41631  33.52323  34.20932  34.52599  34.52599
    1 S1      .S       -0.02665  -0.00000  -0.06005   0.00769   0.00769
    2 S1      .S        0.02439   0.00000   0.11208   0.01804   0.01804
    3 S1      .X       -0.00000  -0.00000   0.00000  -0.00000  -0.00000
    4 S1      .Y        0.07334   0.05499  -0.00000  -0.03209   0.03209
    5 S1      .Z       -0.05774  -0.00000   0.07761   0.00817   0.00817
    6 S1      .S       -0.69309  -0.00000  -2.22750   0.31804   0.31804
    7 S1      .X        0.00000   0.00000  -0.00000   0.00000   0.00000
    8 S1      .Y       -0.47992  -0.35909   0.00000   0.23516  -0.23516
    9 S1      .Z        0.42797   0.00000  -0.39784  -0.13432  -0.13432
   10 S1      .S       -1.11609   0.00000   3.99292   0.18816   0.18816
   11 S1      .X       -0.00000  -0.00000   0.00000  -0.00000  -0.00000
   12 S1      .Y       -0.38692  -0.41115  -0.00000  -0.01337   0.01337
   13 S1      .Z        0.54520  -0.00000  -1.74508  -0.05478  -0.05478
   14 S1      .XX       0.00629  -0.00000  -0.40583  -0.00626  -0.00626
   15 S1      .YY      -0.02236   0.00000   1.08654  -0.00525  -0.00525
   16 S1      .ZZ       0.00469  -0.00000   1.12213  -0.01635  -0.01635
   17 S1      .XY      -0.00000  -0.00000  -0.00000   0.00000  -0.00000
   18 S1      .XZ       0.00000  -0.00000  -0.00000   0.00000  -0.00000
   19 S1      .YZ       0.01898   1.21344  -0.00000   0.00145  -0.00145
   20 C2      .S       -0.03977  -0.03973   0.06772   0.00907   0.01744
   21 C2      .S       -0.87560  -0.31941   0.47231  -0.01399   0.09736
   22 C2      .X       -0.00000  -0.00000   0.00000   0.00000   0.00000
   23 C2      .Y        0.72809  -0.03592   0.01257   0.14209   0.02390
   24 C2      .Z       -0.53734   0.03673  -0.02026   0.22148  -0.12267
   25 C2      .S        2.22088   1.74375  -2.31393  -3.08635   1.21389
   26 C2      .X        0.00000   0.00000  -0.00000  -0.00000   0.00000
   27 C2      .Y       -3.61587  -1.43649   1.24327   2.36616  -0.41757
   28 C2      .Z        0.68615  -0.18408  -0.62675   0.92033  -0.35111
   29 C2      .XX       0.03028  -0.04083   0.06127  -0.03472   0.01453
   30 C2      .YY      -0.33674   0.10189  -0.03935  -0.00493   0.00877
   31 C2      .ZZ       0.27229   0.10225  -0.02786  -0.08571   0.02413
   32 C2      .XY       0.00000   0.00000   0.00000   0.00000   0.00000
   33 C2      .XZ       0.00000   0.00000  -0.00000   0.00000   0.00000
   34 C2      .YZ      -0.20951  -0.12144   0.08378   0.01291  -0.00686
   35 C3      .S        0.01249   0.03973   0.06772   0.01744   0.00907
   36 C3      .S        0.03732   0.31941   0.47231   0.09736  -0.01399
   37 C3      .X       -0.00000   0.00000   0.00000  -0.00000   0.00000
   38 C3      .Y       -0.02054  -0.03592  -0.01257  -0.02390  -0.14209
   39 C3      .Z        0.03314  -0.03673  -0.02026  -0.12267   0.22148
   40 C3      .S       -0.06991  -1.74375  -2.31393   1.21389  -3.08635
   41 C3      .X        0.00000   0.00000   0.00000   0.00000   0.00000
   42 C3      .Y       -0.43394  -1.43649  -1.24327   0.41757  -2.36616
   43 C3      .Z        0.10844   0.18408  -0.62675  -0.35111   0.92033
   44 C3      .XX      -0.00257   0.04083   0.06127   0.01453  -0.03472
   45 C3      .YY      -0.00604  -0.10189  -0.03935   0.00877  -0.00493
   46 C3      .ZZ      -0.00295  -0.10225  -0.02786   0.02413  -0.08571
[...]
   43 C3      .Z        0.05030   0.17945   0.12038   0.01571   1.68202
   44 C3      .XX       0.00663   0.06688   0.02722  -1.00434   0.26878
   45 C3      .YY       0.02005   0.36609   0.02433   0.88692   0.15276
   46 C3      .ZZ       0.01970  -1.25318   0.00322   0.21318  -0.80501
   47 C3      .XY      -0.00000  -0.00000   0.00000  -0.00000  -0.00000
   48 C3      .XZ      -0.00000   0.00000   0.00000  -0.00000  -0.00000
   49 C3      .YZ       0.00410  -0.48890   0.00499   0.05160   1.02771
   50 C4      .S        0.01954   0.00298   0.00427   0.01154   0.00594
   51 C4      .S        0.14401  -0.02154   0.06870   0.04982   0.08077
   52 C4      .X       -0.00000   0.00000   0.00000  -0.00000  -0.00000
   53 C4      .Y        0.17054  -0.05929  -0.01690  -0.06635   0.04468
   54 C4      .Z        0.18862   0.02755  -0.14214   0.03710  -0.00617
   55 C4      .S       -0.86792   1.04972  -0.87946   0.20300  -1.30559
   56 C4      .X        0.00000  -0.00000  -0.00000   0.00000  -0.00000
   57 C4      .Y        1.13570  -0.42488   0.03927   0.09088   0.25391
   58 C4      .Z       -0.81569   0.17642  -0.70426   0.04561  -0.72928
   59 C4      .XX       0.01606   0.02530   0.01355   0.03456  -0.01375
   60 C4      .YY       0.12295   0.01639  -0.04568   0.03002  -0.03664
   61 C4      .ZZ       0.07207   0.02945  -0.14393   0.02181  -0.03616
   62 C4      .XY       0.00000   0.00000  -0.00000  -0.00000  -0.00000
   63 C4      .XZ      -0.00000   0.00000   0.00000  -0.00000  -0.00000
   64 C4      .YZ       0.17729  -0.03859   0.00765  -0.00876   0.00473
   65 C5      .S        0.00298   0.01954   0.01154   0.00427   0.01178
   66 C5      .S       -0.02154   0.14401   0.04982   0.06870  -0.03235
   67 C5      .X       -0.00000   0.00000   0.00000  -0.00000  -0.00000
   68 C5      .Y        0.05929  -0.17054   0.06635   0.01690  -0.15112
   69 C5      .Z        0.02755   0.18862   0.03710  -0.14214   0.48423
   70 C5      .S        1.04972  -0.86792   0.20300  -0.87946   1.98269
   71 C5      .X       -0.00000   0.00000   0.00000   0.00000   0.00000
   72 C5      .Y        0.42488  -1.13570  -0.09088  -0.03927   0.39367
   73 C5      .Z        0.17642  -0.81569   0.04561  -0.70426   1.29320
   74 C5      .XX       0.02530   0.01606   0.03456   0.01355   0.04858
   75 C5      .YY       0.01639   0.12295   0.03002  -0.04568   0.09675
   76 C5      .ZZ       0.02945   0.07207   0.02181  -0.14393   0.44561
   77 C5      .XY      -0.00000  -0.00000   0.00000  -0.00000   0.00000
   78 C5      .XZ      -0.00000   0.00000   0.00000  -0.00000  -0.00000
   79 C5      .YZ       0.03859  -0.17729   0.00876  -0.00765  -0.13463
   80 H6      .S       -0.17439  -0.03966  -0.42533  -0.01990   0.05502
   81 H6      .S        0.47752  -0.15378   0.03227  -0.16387   0.23018
   82 H7      .S       -0.03966  -0.17439  -0.01990  -0.42533  -0.10449
   83 H7      .S       -0.15378   0.47752  -0.16387   0.03227  -1.02116
   84 H8      .S       -0.12301  -0.02839   0.00893  -0.00513  -0.01548
   85 H8      .S       -0.54860   0.04105  -0.19980  -0.08118  -0.17129
   86 H9      .S       -0.02839  -0.12301  -0.00513   0.00893   0.02409
   87 H9      .S        0.04105  -0.54860  -0.08118  -0.19980   0.45149
                          76        77        78        79        80
                           V         V         V         V         V    
     Eigenvalues --  27211.395227211.395227211.395227211.395227211.3952
    1 S1      .S       -0.00266   0.00162   0.00162  -0.00106  -0.00106
    2 S1      .S        0.01705  -0.00248  -0.00248  -0.00303  -0.00303
    3 S1      .X        0.00000   0.00000  -0.00000  -0.00000   0.00000
    4 S1      .Y        0.03814  -0.00068   0.00068  -0.00989   0.00989
    5 S1      .Z       -0.03188   0.01406   0.01406  -0.01265  -0.01265
    6 S1      .S        0.11288   0.04247   0.04247  -0.02668  -0.02668
    7 S1      .X       -0.00000  -0.00000   0.00000   0.00000  -0.00000
    8 S1      .Y       -0.14956  -0.00636   0.00636   0.08621  -0.08621
    9 S1      .Z        0.13382  -0.08780  -0.08780   0.09846   0.09846
   10 S1      .S       -0.35570   0.16462   0.16462  -0.34973  -0.34973
   11 S1      .X        0.00000   0.00000  -0.00000   0.00000  -0.00000
   12 S1      .Y       -0.37144   0.10047  -0.10047   0.04193  -0.04193
   13 S1      .Z        0.05856  -0.09884  -0.09884   0.16222   0.16222
   14 S1      .XX      -0.04302  -0.00360  -0.00360  -0.00401  -0.00401
   15 S1      .YY      -0.11802  -0.01471  -0.01471  -0.00620  -0.00620
   16 S1      .ZZ      -0.11004   0.02174   0.02174  -0.03708  -0.03708
   17 S1      .XY      -0.00000  -0.00000   0.00000   0.00000  -0.00000
   18 S1      .XZ      -0.00000  -0.00000  -0.00000  -0.00000  -0.00000
   19 S1      .YZ       0.06904  -0.01069   0.01069  -0.00978   0.00978
   20 C2      .S       -0.00215   0.00603   0.00849  -0.01078  -0.02166
   21 C2      .S       -0.27466   0.03026   0.03772  -0.04607  -0.07808
   22 C2      .X        0.00000   0.00000   0.00000  -0.00000  -0.00000
   23 C2      .Y       -0.17068   0.00005   0.16280   0.06245  -0.01767
   24 C2      .Z        0.09081   0.01482   0.18259   0.06573   0.10477
   25 C2      .S       -0.28008   0.12413  -1.36506  -0.37720   0.93487
   26 C2      .X       -0.00000  -0.00000   0.00000  -0.00000   0.00000
   27 C2      .Y        1.52222   0.05970   0.51200   0.14495  -0.94507
   28 C2      .Z        1.68202  -0.17392   0.72969   0.13472  -0.16396
   29 C2      .XX       0.26878  -0.00187  -0.01959  -0.03295  -0.03830
   30 C2      .YY       0.15276  -0.00409  -0.09888  -0.05738   0.06531
   31 C2      .ZZ      -0.80501  -0.01952  -0.08226  -0.00833  -0.17531
   32 C2      .XY       0.00000  -0.00000  -0.00000  -0.00000   0.00000
   33 C2      .XZ      -0.00000  -0.00000   0.00000  -0.00000  -0.00000
   34 C2      .YZ      -1.02771   0.00304  -0.15560  -0.02642   0.01822
   35 C3      .S       -0.01293   0.00849   0.00603  -0.02166  -0.01078
   36 C3      .S       -0.08363   0.03772   0.03026  -0.07808  -0.04607
   37 C3      .X        0.00000   0.00000   0.00000  -0.00000  -0.00000
   38 C3      .Y       -0.01324  -0.16280  -0.00005   0.01767  -0.06245
   39 C3      .Z       -0.01476   0.18259   0.01482   0.10477   0.06573
   40 C3      .S        0.79245  -1.36506   0.12413   0.93487  -0.37720
   41 C3      .X       -0.00000  -0.00000  -0.00000  -0.00000   0.00000
   42 C3      .Y        0.63403  -0.51200  -0.05970   0.94507  -0.14495
   43 C3      .Z       -0.51148   0.72969  -0.17392  -0.16396   0.13472
   44 C3      .XX      -0.01583  -0.01959  -0.00187  -0.03830  -0.03295
   45 C3      .YY       0.00429  -0.09888  -0.00409   0.06531  -0.05738
   46 C3      .ZZ       0.00295  -0.08226  -0.01952  -0.17531  -0.00833
   47 C3      .XY       0.00000  -0.00000   0.00000  -0.00000  -0.00000
   48 C3      .XZ       0.00000   0.00000  -0.00000   0.00000  -0.00000
   49 C3      .YZ      -0.00918   0.15560  -0.00304  -0.01822   0.02642
   50 C4      .S        0.01178   0.01279  -0.06807  -0.01133  -0.09903
   51 C4      .S       -0.03235   0.00649  -0.10822  -0.11395   1.38179
   52 C4      .X       -0.00000  -0.00000  -0.00000  -0.00000   0.00000
   53 C4      .Y        0.15112  -0.39723   0.21347  -0.17323  -0.02144
   54 C4      .Z        0.48423   0.00683   0.11802   0.07802   0.22581
   55 C4      .S        1.98269  -0.07434   1.82826   1.37041  -1.72912
   56 C4      .X        0.00000  -0.00000   0.00000   0.00000  -0.00000
   57 C4      .Y       -0.39367  -0.18104   0.64091  -0.81422   1.17434
   58 C4      .Z        1.29320  -0.28511   0.84828   0.89906  -1.15814
   59 C4      .XX       0.04858   0.03701   0.02301   0.02394  -0.16226
   60 C4      .YY       0.09675   0.43399  -1.42065   0.16227  -0.79782
   61 C4      .ZZ       0.44561   0.03619   0.68655   0.06559  -0.70440
   62 C4      .XY       0.00000  -0.00000  -0.00000   0.00000   0.00000
   63 C4      .XZ      -0.00000  -0.00000   0.00000  -0.00000  -0.00000
   64 C4      .YZ       0.13463   0.02012  -0.08156  -0.12812   1.06288
   65 C5      .S        0.00594  -0.06807   0.01279  -0.09903  -0.01133
   66 C5      .S        0.08077  -0.10822   0.00649   1.38179  -0.11395
   67 C5      .X        0.00000  -0.00000   0.00000   0.00000   0.00000
   68 C5      .Y       -0.04468  -0.21347   0.39723   0.02144   0.17323
   69 C5      .Z       -0.00617   0.11802   0.00683   0.22581   0.07802
   70 C5      .S       -1.30559   1.82826  -0.07434  -1.72912   1.37041
   71 C5      .X       -0.00000   0.00000  -0.00000   0.00000  -0.00000
   72 C5      .Y       -0.25391  -0.64091   0.18104  -1.17434   0.81422
   73 C5      .Z       -0.72928   0.84828  -0.28511  -1.15814   0.89906
   74 C5      .XX      -0.01375   0.02301   0.03701  -0.16226   0.02394
   75 C5      .YY      -0.03664  -1.42065   0.43399  -0.79782   0.16227
   76 C5      .ZZ      -0.03616   0.68655   0.03619  -0.70440   0.06559
   77 C5      .XY       0.00000   0.00000  -0.00000   0.00000   0.00000
   78 C5      .XZ       0.00000  -0.00000  -0.00000   0.00000  -0.00000
   79 C5      .YZ      -0.00473   0.08156  -0.02012  -1.06288   0.12812
   80 H6      .S       -0.10449  -0.01166   0.01261   0.00657   0.05771
   81 H6      .S       -1.02116  -0.02677  -0.23370  -0.00305   0.36303
   82 H7      .S        0.05502   0.01261  -0.01166   0.05771   0.00657
   83 H7      .S        0.23018  -0.23370  -0.02677   0.36303  -0.00305
   84 H8      .S        0.02409  -0.04071  -0.15972   0.04438   0.42233
   85 H8      .S        0.45149   0.00050  -0.16448   0.47814  -0.63961
   86 H9      .S       -0.01548  -0.15972  -0.04071   0.42233   0.04438
   87 H9      .S       -0.17129  -0.16448   0.00050  -0.63961   0.47814
                          81        82        83        84        85
                           V         V         V         V         V    
     Eigenvalues --  27211.395227211.395227211.395227211.395227211.3952
    1 S1      .S        0.00116   0.00116  -0.15810   0.00104   0.00104
    2 S1      .S        0.01170   0.01170   0.78320   0.00362   0.00362
    3 S1      .X       -0.00000  -0.00000  -0.00000   0.00000  -0.00000
    4 S1      .Y       -0.01623   0.01623  -0.00000  -0.01016   0.01016
    5 S1      .Z        0.01087   0.01087   0.01352   0.00055   0.00055
    6 S1      .S        0.04308   0.04308  -5.95705   0.05303   0.05303
    7 S1      .X        0.00000   0.00000   0.00000  -0.00000   0.00000
    8 S1      .Y        0.11758  -0.11758   0.00000   0.09004  -0.09004
    9 S1      .Z       -0.08644  -0.08644  -0.08055  -0.02500  -0.02500
   10 S1      .S        0.02535   0.02535  -0.68465   0.04041   0.04041
   11 S1      .X        0.00000  -0.00000  -0.00000   0.00000  -0.00000
   12 S1      .Y       -0.17236   0.17236   0.00000   0.00008  -0.00008
   13 S1      .Z       -0.04853  -0.04853   0.53828  -0.01052  -0.01052
   14 S1      .XX       0.02672   0.02672   2.87538   0.00091   0.00091
   15 S1      .YY       0.01357   0.01357   2.59103  -0.00369  -0.00369
   16 S1      .ZZ       0.03385   0.03385   2.56647  -0.00674  -0.00674
   17 S1      .XY      -0.00000   0.00000  -0.00000  -0.00000   0.00000
   18 S1      .XZ      -0.00000  -0.00000  -0.00000  -0.00000  -0.00000
   19 S1      .YZ      -0.02479   0.02479   0.00000  -0.01173   0.01173
   20 C2      .S        0.01198   0.00889  -0.00223   0.02346  -0.00329
   21 C2      .S        0.11136   0.03824  -0.00402   0.15594  -0.00647
   22 C2      .X        0.00000   0.00000  -0.00000  -0.00000  -0.00000
   23 C2      .Y        0.10900  -0.01814  -0.00869  -0.17972   0.01231
   24 C2      .Z        0.38946  -0.07037  -0.00474  -0.40263  -0.03438
   25 C2      .S       -2.97380   0.68834   0.43090  -1.15639   0.66606
   26 C2      .X       -0.00000  -0.00000   0.00000   0.00000   0.00000
   27 C2      .Y        1.20655  -0.44805  -0.01388   0.63767  -0.42477
   28 C2      .Z        1.42872  -0.30402   0.18341   0.35275  -0.22606
   29 C2      .XX       0.00530   0.02517  -0.00474   0.07090  -0.00066
   30 C2      .YY      -0.07701   0.00306  -0.04060   0.10524  -0.00060
   31 C2      .ZZ      -0.26244   0.03291  -0.03998   0.35942  -0.02080
   32 C2      .XY       0.00000   0.00000   0.00000  -0.00000  -0.00000
   33 C2      .XZ       0.00000   0.00000  -0.00000  -0.00000   0.00000
   34 C2      .YZ      -0.11169   0.00771   0.04221   0.11170   0.00625
   35 C3      .S        0.00889   0.01198  -0.00223  -0.00329   0.02346
   36 C3      .S        0.03824   0.11136  -0.00402  -0.00647   0.15594
   37 C3      .X        0.00000   0.00000  -0.00000  -0.00000   0.00000
   38 C3      .Y        0.01814  -0.10900   0.00869  -0.01231   0.17972
   39 C3      .Z       -0.07037   0.38946  -0.00474  -0.03438  -0.40263
   40 C3      .S        0.68834  -2.97380   0.43090   0.66606  -1.15639
   41 C3      .X       -0.00000   0.00000   0.00000   0.00000   0.00000
   42 C3      .Y        0.44805  -1.20655   0.01388   0.42477  -0.63767
   43 C3      .Z       -0.30402   1.42872   0.18341  -0.22606   0.35275
   44 C3      .XX       0.02517   0.00530  -0.00474  -0.00066   0.07090
   45 C3      .YY       0.00306  -0.07701  -0.04060  -0.00060   0.10524
   46 C3      .ZZ       0.03291  -0.26244  -0.03998  -0.02080   0.35942
   47 C3      .XY       0.00000   0.00000   0.00000   0.00000   0.00000
   48 C3      .XZ      -0.00000   0.00000  -0.00000  -0.00000  -0.00000
   49 C3      .YZ      -0.00771   0.11169  -0.04221  -0.00625  -0.11170
   50 C4      .S       -0.25687   0.02415  -0.00998  -0.43291   0.01354
   51 C4      .S        0.07084   0.25287  -0.06604   2.68424   0.14413
   52 C4      .X       -0.00000  -0.00000  -0.00000   0.00000   0.00000
   53 C4      .Y        0.01128   0.15656   0.02372  -0.00828  -0.13666
   54 C4      .Z        0.09670   0.04231  -0.02853  -0.27374  -0.01436
   55 C4      .S        5.97456  -2.69573   0.10099   2.78075  -1.75438
   56 C4      .X        0.00000   0.00000  -0.00000  -0.00000  -0.00000
   57 C4      .Y       -0.81515   1.25527  -0.09188  -0.77938   0.74219
   58 C4      .Z        2.31844  -1.09433   0.17020   0.82437  -0.77212
   59 C4      .XX      -1.65818   0.01705  -0.01900  -1.43174   0.03153
   60 C4      .YY      -0.22750  -0.12907  -0.00426  -1.64368   0.13257
   61 C4      .ZZ       0.11700  -0.05176  -0.00045  -2.08999   0.03690
   62 C4      .XY       0.00000   0.00000  -0.00000   0.00000  -0.00000
   63 C4      .XZ       0.00000   0.00000  -0.00000  -0.00000   0.00000
   64 C4      .YZ       0.34453  -0.02651  -0.00258  -0.49165   0.05364
   65 C5      .S        0.02415  -0.25687  -0.00998   0.01354  -0.43291
   66 C5      .S        0.25287   0.07084  -0.06604   0.14413   2.68424
   67 C5      .X        0.00000  -0.00000   0.00000   0.00000   0.00000
   68 C5      .Y       -0.15656  -0.01128  -0.02372   0.13666   0.00828
   69 C5      .Z        0.04231   0.09670  -0.02853  -0.01436  -0.27374
   70 C5      .S       -2.69573   5.97456   0.10099  -1.75438   2.78075
   71 C5      .X       -0.00000  -0.00000   0.00000  -0.00000  -0.00000
   72 C5      .Y       -1.25527   0.81515   0.09188  -0.74219   0.77938
   73 C5      .Z       -1.09433   2.31844   0.17020  -0.77212   0.82437
   74 C5      .XX       0.01705  -1.65818  -0.01900   0.03153  -1.43174
   75 C5      .YY      -0.12907  -0.22750  -0.00426   0.13257  -1.64368
   76 C5      .ZZ      -0.05176   0.11700  -0.00045   0.03690  -2.08999
   77 C5      .XY      -0.00000  -0.00000   0.00000   0.00000   0.00000
   78 C5      .XZ      -0.00000   0.00000  -0.00000  -0.00000  -0.00000
   79 C5      .YZ       0.02651  -0.34453   0.00258  -0.05364   0.49165
   80 H6      .S        0.01264   0.03843  -0.03796  -0.03908   0.01595
   81 H6      .S       -0.36170   0.08955  -0.06441  -0.16298   0.12523
   82 H7      .S        0.03843   0.01264  -0.03796   0.01595  -0.03908
   83 H7      .S        0.08955  -0.36170  -0.06441   0.12523  -0.16298
   84 H8      .S       -0.13691  -0.02154   0.01242   0.16650  -0.02492
   85 H8      .S        0.26096  -0.38616   0.10161  -0.00194  -0.30691
   86 H9      .S       -0.02154  -0.13691   0.01242  -0.02492   0.16650
   87 H9      .S       -0.38616   0.26096   0.10161  -0.30691  -0.00194
                          86        87
                           V         V    
     Eigenvalues --  27211.395227211.3952
    1 S1      .S        0.00076   0.00076
    2 S1      .S        0.00150   0.00150
    3 S1      .X        0.00000  -0.00000
    4 S1      .Y        0.00891  -0.00891
    5 S1      .Z        0.00770   0.00770
    6 S1      .S       -0.05423  -0.05423
    7 S1      .X       -0.00000   0.00000
    8 S1      .Y        0.02720  -0.02720
    9 S1      .Z        0.04090   0.04090
   10 S1      .S       -0.79251  -0.79251
   11 S1      .X        0.00000  -0.00000
   12 S1      .Y        0.12382  -0.12382
   13 S1      .Z        0.41056   0.41056
   14 S1      .XX       0.03641   0.03641
   15 S1      .YY       0.04563   0.04563
   16 S1      .ZZ       0.04796   0.04796
   17 S1      .XY      -0.00000   0.00000
   18 S1      .XZ       0.00000  -0.00000
   19 S1      .YZ       0.02318  -0.02318
   20 C2      .S       -0.00549  -0.49681
   21 C2      .S       -0.01974   2.89126
   22 C2      .X        0.00000   0.00000
   23 C2      .Y        0.00407   0.05204
   24 C2      .Z        0.00060   0.06078
   25 C2      .S        0.23842   2.84083
   26 C2      .X       -0.00000  -0.00000
   27 C2      .Y       -0.04150  -0.51584
   28 C2      .Z        0.13115  -0.28532
   29 C2      .XX      -0.00846  -1.93269
   30 C2      .YY      -0.02607  -1.95774
   31 C2      .ZZ      -0.00855  -1.77714
   32 C2      .XY      -0.00000   0.00000
   33 C2      .XZ       0.00000  -0.00000
   34 C2      .YZ      -0.00293  -0.11349
   35 C3      .S       -0.49681  -0.00549
   36 C3      .S        2.89126  -0.01974
   37 C3      .X        0.00000  -0.00000
   38 C3      .Y       -0.05204  -0.00407
   39 C3      .Z        0.06078   0.00060
   40 C3      .S        2.84083   0.23842
   41 C3      .X       -0.00000   0.00000
   42 C3      .Y        0.51584   0.04150
   43 C3      .Z       -0.28532   0.13115
   44 C3      .XX      -1.93269  -0.00846
   45 C3      .YY      -1.95774  -0.02607
   46 C3      .ZZ      -1.77714  -0.00855
   47 C3      .XY      -0.00000   0.00000
   48 C3      .XZ       0.00000  -0.00000
   49 C3      .YZ       0.11349   0.00293
   50 C4      .S        0.00324   0.00625
   51 C4      .S        0.02694   0.12589
   52 C4      .X       -0.00000   0.00000
   53 C4      .Y       -0.01257   0.04381
   54 C4      .Z       -0.01125   0.16753
   55 C4      .S        0.12777  -1.16686
   56 C4      .X        0.00000   0.00000
   57 C4      .Y        0.05523  -0.14319
   58 C4      .Z        0.04591  -0.55627
   59 C4      .XX       0.00460   0.02086
   60 C4      .YY      -0.01590   0.03051
   61 C4      .ZZ      -0.01129   0.13555
   62 C4      .XY       0.00000  -0.00000
   63 C4      .XZ      -0.00000   0.00000
   64 C4      .YZ       0.01281   0.03790
   65 C5      .S        0.00625   0.00324
   66 C5      .S        0.12589   0.02694
   67 C5      .X       -0.00000   0.00000
   68 C5      .Y       -0.04381   0.01257
   69 C5      .Z        0.16753  -0.01125
   70 C5      .S       -1.16686   0.12777
   71 C5      .X        0.00000  -0.00000
   72 C5      .Y        0.14319  -0.05523
   73 C5      .Z       -0.55627   0.04591
   74 C5      .XX       0.02086   0.00460
   75 C5      .YY       0.03051  -0.01590
   76 C5      .ZZ       0.13555  -0.01129
   77 C5      .XY      -0.00000   0.00000
   78 C5      .XZ       0.00000  -0.00000
   79 C5      .YZ      -0.03790  -0.01281
   80 H6      .S       -0.00593   0.21211
   81 H6      .S       -0.04463  -0.29632
   82 H7      .S        0.21211  -0.00593
   83 H7      .S       -0.29632  -0.04463
   84 H8      .S       -0.00095   0.01727
   85 H8      .S       -0.03764  -0.03600
   86 H9      .S        0.01727  -0.00095
   87 H9      .S       -0.03600  -0.03764
