 Entering Gaussian System, Link 0=g09
 Initial command:
 /home/Andriy.Zhugayevych/local/gaussian/g09/l1.exe "/home/Andriy.Zhugayevych/scratch/molec_CAM-B3LYPp2p_mgf/Gau-25194.inp" -scrdir="/home/Andriy.Zhugayevych/scratch/molec_CAM-B3LYPp2p_mgf/"
 Entering Link 1 = /home/Andriy.Zhugayevych/local/gaussian/g09/l1.exe PID=     25195.
  
 Copyright (c) 1988,1990,1992,1993,1995,1998,2003,2009,2013,
            Gaussian, Inc.  All Rights Reserved.
  
 This is part of the Gaussian(R) 09 program.  It is based on
 the Gaussian(R) 03 system (copyright 2003, Gaussian, Inc.),
 the Gaussian(R) 98 system (copyright 1998, Gaussian, Inc.),
 the Gaussian(R) 94 system (copyright 1995, Gaussian, Inc.),
 the Gaussian 92(TM) system (copyright 1992, Gaussian, Inc.),
 the Gaussian 90(TM) system (copyright 1990, Gaussian, Inc.),
 the Gaussian 88(TM) system (copyright 1988, Gaussian, Inc.),
 the Gaussian 86(TM) system (copyright 1986, Carnegie Mellon
 University), and the Gaussian 82(TM) system (copyright 1983,
 Carnegie Mellon University). Gaussian is a federally registered
 trademark of Gaussian, Inc.
  
 This software contains proprietary and confidential information,
 including trade secrets, belonging to Gaussian, Inc.
  
 This software is provided under written license and may be
 used, copied, transmitted, or stored only in accord with that
 written license.
  
 The following legend is applicable only to US Government
 contracts under FAR:
  
                    RESTRICTED RIGHTS LEGEND
  
 Use, reproduction and disclosure by the US Government is
 subject to restrictions as set forth in subparagraphs (a)
 and (c) of the Commercial Computer Software - Restricted
 Rights clause in FAR 52.227-19.
  
 Gaussian, Inc.
 340 Quinnipiac St., Bldg. 40, Wallingford CT 06492
  
  
 ---------------------------------------------------------------
 Warning -- This program may not be used in any manner that
 competes with the business of Gaussian, Inc. or will provide
 assistance to any competitor of Gaussian, Inc.  The licensee
 of this program is prohibited from giving any competitor of
 Gaussian, Inc. access to this program.  By using this program,
 the user acknowledges that Gaussian, Inc. is engaged in the
 business of creating and licensing software in the field of
 computational chemistry and represents and warrants to the
 licensee that it is not a competitor of Gaussian, Inc. and that
 it will not use this program in any manner prohibited above.
 ---------------------------------------------------------------
  

 Cite this work as:
 Gaussian 09, Revision D.01,
 M. J. Frisch, G. W. Trucks, H. B. Schlegel, G. E. Scuseria, 
 M. A. Robb, J. R. Cheeseman, G. Scalmani, V. Barone, B. Mennucci, 
 G. A. Petersson, H. Nakatsuji, M. Caricato, X. Li, H. P. Hratchian, 
 A. F. Izmaylov, J. Bloino, G. Zheng, J. L. Sonnenberg, M. Hada, 
 M. Ehara, K. Toyota, R. Fukuda, J. Hasegawa, M. Ishida, T. Nakajima, 
 Y. Honda, O. Kitao, H. Nakai, T. Vreven, J. A. Montgomery, Jr., 
 J. E. Peralta, F. Ogliaro, M. Bearpark, J. J. Heyd, E. Brothers, 
 K. N. Kudin, V. N. Staroverov, T. Keith, R. Kobayashi, J. Normand, 
 K. Raghavachari, A. Rendell, J. C. Burant, S. S. Iyengar, J. Tomasi, 
 M. Cossi, N. Rega, J. M. Millam, M. Klene, J. E. Knox, J. B. Cross, 
 V. Bakken, C. Adamo, J. Jaramillo, R. Gomperts, R. E. Stratmann, 
 O. Yazyev, A. J. Austin, R. Cammi, C. Pomelli, J. W. Ochterski, 
 R. L. Martin, K. Morokuma, V. G. Zakrzewski, G. A. Voth, 
 P. Salvador, J. J. Dannenberg, S. Dapprich, A. D. Daniels, 
 O. Farkas, J. B. Foresman, J. V. Ortiz, J. Cioslowski, 
 and D. J. Fox, Gaussian, Inc., Wallingford CT, 2013.
 
 ******************************************
 Gaussian 09:  ES64L-G09RevD.01 24-Apr-2013
                11-Apr-2016 
 ******************************************
 %nproc=8
 Will use up to    8 processors via shared memory.
 ---------------------------------------------
 #T gfprint pop(full) CAM-B3LYP 6-31g* Density
 ---------------------------------------------


 Symbolic Z-matrix:
 Charge =  0 Multiplicity = 1
 S                     0.        1.76259   0. 
 C                     1.2364    0.55997   0. 
 C                    -1.2364    0.55997   0. 
 C                     0.71377  -0.69615   0. 
 C                    -0.71377  -0.69615   0. 
 H                     2.27772   0.84977   0. 
 H                    -2.27772   0.84977   0. 
 H                     1.31906  -1.59489   0. 
 H                    -1.31906  -1.59489   0. 
 
                    Distance matrix (angstroms):
                    1          2          3          4          5
     1  S    0.000000
     2  C    1.724810   0.000000
     3  C    1.724810   2.472798   0.000000
     4  C    2.560248   1.360512   2.319695   0.000000
     5  C    2.560248   2.319695   1.360512   1.427530   0.000000
     6  H    2.453824   1.080894   3.526048   2.199051   3.367321
     7  H    2.453824   3.526048   1.080894   3.367321   2.199051
     8  H    3.607293   2.156445   3.342719   1.083561   2.222631
     9  H    3.607293   3.342719   2.156445   2.222631   1.083561
                    6          7          8          9
     6  H    0.000000
     7  H    4.555440   0.000000
     8  H    2.625905   4.348924   0.000000
     9  H    4.348924   2.625905   2.638112   0.000000
 Framework group  C2V[C2(S),SGV(C4H4)]
 Deg. of freedom     8
                         Standard orientation:                         
 ---------------------------------------------------------------------
 Center     Atomic      Atomic             Coordinates (Angstroms)
 Number     Number       Type             X           Y           Z
 ---------------------------------------------------------------------
      1         16           0        0.000000    0.000000    1.192657
      2          6           0        0.000000    1.236399   -0.009960
      3          6           0        0.000000   -1.236399   -0.009960
      4          6           0        0.000000    0.713765   -1.266084
      5          6           0        0.000000   -0.713765   -1.266084
      6          1           0        0.000000    2.277720    0.279836
      7          1           0        0.000000   -2.277720    0.279836
      8          1           0        0.000000    1.319056   -2.164820
      9          1           0        0.000000   -1.319056   -2.164820
 ---------------------------------------------------------------------
 Rotational constants (GHZ):      8.0372378      5.4113644      3.2339735
 AO basis set (Overlap normalization):
 Atom S1       Shell     1 S   6     bf    1 -     1          0.000000000000          0.000000000000          2.253794413296
      0.2191710000D+05  0.1869240849D-02
      0.3301490000D+04  0.1423030646D-01
      0.7541460000D+03  0.6969623166D-01
      0.2127110000D+03  0.2384871083D+00
      0.6798960000D+02  0.4833072195D+00
      0.2305150000D+02  0.3380741536D+00
 Atom S1       Shell     2 SP   6    bf    2 -     5          0.000000000000          0.000000000000          2.253794413296
      0.4237350000D+03 -0.2376770499D-02  0.4061009982D-02
      0.1007100000D+03 -0.3169300665D-01  0.3068129986D-01
      0.3215990000D+02 -0.1133170238D+00  0.1304519994D+00
      0.1180790000D+02  0.5609001177D-01  0.3272049985D+00
      0.4631100000D+01  0.5922551243D+00  0.4528509980D+00
      0.1870250000D+01  0.4550060955D+00  0.2560419989D+00
 Atom S1       Shell     3 SP   3    bf    6 -     9          0.000000000000          0.000000000000          2.253794413296
      0.2615840000D+01 -0.2503731142D+00 -0.1451048955D-01
      0.9221670000D+00  0.6695676310D-01  0.3102627765D+00
      0.3412870000D+00  0.1054506269D+01  0.7544824565D+00
 Atom S1       Shell     4 SP   1    bf   10 -    13          0.000000000000          0.000000000000          2.253794413296
      0.1171670000D+00  0.1000000000D+01  0.1000000000D+01
 Atom S1       Shell     5 D   1     bf   14 -    19          0.000000000000          0.000000000000          2.253794413296
      0.6500000000D+00  0.1000000000D+01
 Atom C2       Shell     6 S   6     bf   20 -    20          0.000000000000          2.336455500974         -0.018822359457
      0.3047524880D+04  0.1834737132D-02
      0.4573695180D+03  0.1403732281D-01
      0.1039486850D+03  0.6884262226D-01
      0.2921015530D+02  0.2321844432D+00
      0.9286662960D+01  0.4679413484D+00
      0.3163926960D+01  0.3623119853D+00
 Atom C2       Shell     7 SP   3    bf   21 -    24          0.000000000000          2.336455500974         -0.018822359457
      0.7868272350D+01 -0.1193324198D+00  0.6899906659D-01
      0.1881288540D+01 -0.1608541517D+00  0.3164239610D+00
      0.5442492580D+00  0.1143456438D+01  0.7443082909D+00
 Atom C2       Shell     8 SP   1    bf   25 -    28          0.000000000000          2.336455500974         -0.018822359457
      0.1687144782D+00  0.1000000000D+01  0.1000000000D+01
 Atom C2       Shell     9 D   1     bf   29 -    34          0.000000000000          2.336455500974         -0.018822359457
      0.8000000000D+00  0.1000000000D+01
 Atom C3       Shell    10 S   6     bf   35 -    35          0.000000000000         -2.336455500974         -0.018822359457
      0.3047524880D+04  0.1834737132D-02
      0.4573695180D+03  0.1403732281D-01
      0.1039486850D+03  0.6884262226D-01
      0.2921015530D+02  0.2321844432D+00
      0.9286662960D+01  0.4679413484D+00
      0.3163926960D+01  0.3623119853D+00
 Atom C3       Shell    11 SP   3    bf   36 -    39          0.000000000000         -2.336455500974         -0.018822359457
      0.7868272350D+01 -0.1193324198D+00  0.6899906659D-01
      0.1881288540D+01 -0.1608541517D+00  0.3164239610D+00
      0.5442492580D+00  0.1143456438D+01  0.7443082909D+00
 Atom C3       Shell    12 SP   1    bf   40 -    43          0.000000000000         -2.336455500974         -0.018822359457
      0.1687144782D+00  0.1000000000D+01  0.1000000000D+01
 Atom C3       Shell    13 D   1     bf   44 -    49          0.000000000000         -2.336455500974         -0.018822359457
      0.8000000000D+00  0.1000000000D+01
 Atom C4       Shell    14 S   6     bf   50 -    50          0.000000000000          1.348820373239         -2.392552708402
      0.3047524880D+04  0.1834737132D-02
      0.4573695180D+03  0.1403732281D-01
      0.1039486850D+03  0.6884262226D-01
      0.2921015530D+02  0.2321844432D+00
      0.9286662960D+01  0.4679413484D+00
      0.3163926960D+01  0.3623119853D+00
 Atom C4       Shell    15 SP   3    bf   51 -    54          0.000000000000          1.348820373239         -2.392552708402
      0.7868272350D+01 -0.1193324198D+00  0.6899906659D-01
      0.1881288540D+01 -0.1608541517D+00  0.3164239610D+00
      0.5442492580D+00  0.1143456438D+01  0.7443082909D+00
 Atom C4       Shell    16 SP   1    bf   55 -    58          0.000000000000          1.348820373239         -2.392552708402
      0.1687144782D+00  0.1000000000D+01  0.1000000000D+01
 Atom C4       Shell    17 D   1     bf   59 -    64          0.000000000000          1.348820373239         -2.392552708402
      0.8000000000D+00  0.1000000000D+01
 Atom C5       Shell    18 S   6     bf   65 -    65          0.000000000000         -1.348820373239         -2.392552708402
      0.3047524880D+04  0.1834737132D-02
      0.4573695180D+03  0.1403732281D-01
      0.1039486850D+03  0.6884262226D-01
      0.2921015530D+02  0.2321844432D+00
      0.9286662960D+01  0.4679413484D+00
      0.3163926960D+01  0.3623119853D+00
 Atom C5       Shell    19 SP   3    bf   66 -    69          0.000000000000         -1.348820373239         -2.392552708402
      0.7868272350D+01 -0.1193324198D+00  0.6899906659D-01
      0.1881288540D+01 -0.1608541517D+00  0.3164239610D+00
      0.5442492580D+00  0.1143456438D+01  0.7443082909D+00
 Atom C5       Shell    20 SP   1    bf   70 -    73          0.000000000000         -1.348820373239         -2.392552708402
      0.1687144782D+00  0.1000000000D+01  0.1000000000D+01
 Atom C5       Shell    21 D   1     bf   74 -    79          0.000000000000         -1.348820373239         -2.392552708402
      0.8000000000D+00  0.1000000000D+01
 Atom H6       Shell    22 S   3     bf   80 -    80          0.000000000000          4.304267007396          0.528812714949
      0.1873113696D+02  0.3349460434D-01
      0.2825394365D+01  0.2347269535D+00
      0.6401216923D+00  0.8137573261D+00
 Atom H6       Shell    23 S   1     bf   81 -    81          0.000000000000          4.304267007396          0.528812714949
      0.1612777588D+00  0.1000000000D+01
 Atom H7       Shell    24 S   3     bf   82 -    82          0.000000000000         -4.304267007396          0.528812714949
      0.1873113696D+02  0.3349460434D-01
      0.2825394365D+01  0.2347269535D+00
      0.6401216923D+00  0.8137573261D+00
 Atom H7       Shell    25 S   1     bf   83 -    83          0.000000000000         -4.304267007396          0.528812714949
      0.1612777588D+00  0.1000000000D+01
 Atom H8       Shell    26 S   3     bf   84 -    84          0.000000000000          2.492654593940         -4.090917614167
      0.1873113696D+02  0.3349460434D-01
      0.2825394365D+01  0.2347269535D+00
      0.6401216923D+00  0.8137573261D+00
 Atom H8       Shell    27 S   1     bf   85 -    85          0.000000000000          2.492654593940         -4.090917614167
      0.1612777588D+00  0.1000000000D+01
 Atom H9       Shell    28 S   3     bf   86 -    86          0.000000000000         -2.492654593940         -4.090917614167
      0.1873113696D+02  0.3349460434D-01
      0.2825394365D+01  0.2347269535D+00
      0.6401216923D+00  0.8137573261D+00
 Atom H9       Shell    29 S   1     bf   87 -    87          0.000000000000         -2.492654593940         -4.090917614167
      0.1612777588D+00  0.1000000000D+01
    87 basis functions,   180 primitive gaussians,    87 cartesian basis functions
    22 alpha electrons       22 beta electrons
       nuclear repulsion energy       202.6387659410 Hartrees.
 NAtoms=    9 NActive=    9 NUniq=    5 SFac= 3.24D+00 NAtFMM=   60 NAOKFM=F Big=F
 ExpMin= 1.17D-01 ExpMax= 2.19D+04 ExpMxC= 3.30D+03 IAcc=1 IRadAn=         1 AccDes= 0.00D+00
 Harris functional with IExCor=20419 and IRadAn=       1 diagonalized for initial guess.
 HarFok:  IExCor=20419 AccDes= 0.00D+00 IRadAn=         1 IDoV= 1 UseB2=F ITyADJ=14
 ICtDFT=  3500011 ScaDFX=  1.000000  1.000000  1.000000  1.000000
 FoFCou: FMM=F IPFlag=           0 FMFlag=      100000 FMFlg1=           0
         NFxFlg=           0 DoJE=T BraDBF=F KetDBF=T FulRan=T
         wScrn=  0.000000 ICntrl=     500 IOpCl=  0 I1Cent=   200000004 NGrid=           0
         NMat0=    1 NMatS0=      1 NMatT0=    0 NMatD0=    1 NMtDS0=    0 NMtDT0=    0
 Petite list used in FoFCou.
 Initial guess orbital symmetries:
       Occupied  (A1) (A1) (B2) (B2) (A1) (A1) (B2) (A1) (B1) (A1)
                 (B2) (A1) (A1) (B2) (A1) (B2) (A1) (B1) (B2) (A1)
                 (A2) (B1)
       Virtual   (B1) (A2) (B2) (A1) (A1) (B2) (B2) (A1) (A1) (B2)
                 (A1) (B1) (A1) (B2) (B2) (A1) (B1) (A1) (A2) (B2)
                 (A1) (B1) (A2) (B2) (A1) (B2) (A1) (B2) (B1) (A2)
                 (B2) (A1) (A1) (B2) (A1) (A1) (B2) (B2) (A1) (B1)
                 (B1) (B2) (A2) (A2) (A1) (B1) (A1) (A1) (B2) (B2)
                 (B2) (A2) (B1) (A1) (A2) (A1) (B2) (A1) (B2) (B2)
                 (A1) (A1) (B2) (A1) (B2)
 The electronic state of the initial guess is 1-A1.
 Integral accuracy reduced to 1.0D-05 until final iterations.
 Initial convergence to 1.0D-05 achieved.  Increase integral accuracy.
 SCF Done:  E(RCAM-B3LYP) =  -552.900355297     A.U. after   14 cycles
            NFock= 14  Conv=0.81D-08     -V/T= 2.0050

 **********************************************************************

            Population analysis using the SCF density.

 **********************************************************************

 Orbital symmetries:
       Occupied  (A1) (B2) (A1) (A1) (B2) (A1) (B2) (A1) (B1) (A1)
                 (A1) (B2) (A1) (B2) (A1) (B2) (A1) (B2) (B1) (A1)
                 (B1) (A2)
       Virtual   (B1) (B2) (A2) (A1) (A1) (B2) (B2) (A1) (A1) (B2)
                 (A1) (B1) (A1) (B2) (B2) (A1) (A1) (B1) (A2) (B2)
                 (A1) (B1) (A2) (B2) (B1) (A1) (A2) (B2) (A1) (B2)
                 (A1) (B2) (A1) (B2) (A1) (A1) (B2) (B2) (A1) (B1)
                 (B1) (B2) (A2) (A2) (A1) (B1) (A1) (A1) (B2) (B2)
                 (B2) (A1) (B1) (A2) (A2) (A1) (B2) (A1) (B2) (B2)
                 (A1) (B2) (A1) (A1) (B2)
 The electronic state is 1-A1.
 Alpha  occ. eigenvalues --  -88.97549 -10.28345 -10.28344 -10.26230 -10.26186
 Alpha  occ. eigenvalues --   -8.03811  -6.00310  -5.99917  -5.99600  -0.96037
 Alpha  occ. eigenvalues --   -0.80970  -0.80066  -0.63323  -0.62117  -0.58313
 Alpha  occ. eigenvalues --   -0.47620  -0.45251  -0.44520  -0.44450  -0.40059
 Alpha  occ. eigenvalues --   -0.30201  -0.28935
 Alpha virt. eigenvalues --    0.04348   0.09075   0.12807   0.15301   0.16363
 Alpha virt. eigenvalues --    0.20598   0.22987   0.23032   0.30309   0.35334
 Alpha virt. eigenvalues --    0.36123   0.42504   0.45379   0.48300   0.51297
 Alpha virt. eigenvalues --    0.54034   0.59747   0.61097   0.63919   0.65991
 Alpha virt. eigenvalues --    0.68395   0.71080   0.71835   0.85712   0.86070
 Alpha virt. eigenvalues --    0.86994   0.87543   0.89859   0.91884   0.92331
 Alpha virt. eigenvalues --    0.98093   0.98804   1.05793   1.08874   1.12912
 Alpha virt. eigenvalues --    1.15286   1.18835   1.23519   1.38895   1.43785
 Alpha virt. eigenvalues --    1.49559   1.53377   1.57706   1.80588   1.88954
 Alpha virt. eigenvalues --    1.93151   1.95973   2.03303   2.09780   2.26479
 Alpha virt. eigenvalues --    2.30231   2.33414   2.33589   2.34339   2.54389
 Alpha virt. eigenvalues --    2.56120   2.67788   2.72476   2.95881   3.07836
 Alpha virt. eigenvalues --    4.01780   4.17964   4.18613   4.38494   4.50953
     Molecular Orbital Coefficients:
                           1         2         3         4         5
                        (A1)--O   (B2)--O   (A1)--O   (A1)--O   (B2)--O
     Eigenvalues --   -88.97549 -10.28345 -10.28344 -10.26230 -10.26186
   1 1   S  1S          0.99614   0.00000  -0.00001  -0.00001   0.00000
   2        2S          0.01476   0.00000  -0.00005  -0.00005   0.00000
   3        2PX         0.00000   0.00000   0.00000   0.00000   0.00000
   4        2PY         0.00000   0.00000   0.00000   0.00000   0.00004
   5        2PZ        -0.00008   0.00000   0.00003  -0.00001   0.00000
   6        3S         -0.02389   0.00000   0.00002  -0.00052   0.00000
   7        3PX         0.00000   0.00000   0.00000   0.00000   0.00000
   8        3PY         0.00000   0.00021   0.00000   0.00000  -0.00033
   9        3PZ         0.00014   0.00000  -0.00042   0.00014   0.00000
  10        4S          0.00269   0.00000   0.00707   0.00096   0.00000
  11        4PX         0.00000   0.00000   0.00000   0.00000   0.00000
  12        4PY         0.00000   0.00140   0.00000   0.00000   0.00025
  13        4PZ        -0.00004   0.00000  -0.00356  -0.00054   0.00000
  14        5XX         0.00842   0.00000  -0.00025  -0.00011   0.00000
  15        5YY         0.00842   0.00000  -0.00028   0.00005   0.00000
  16        5ZZ         0.00839   0.00000  -0.00015   0.00012   0.00000
  17        5XY         0.00000   0.00000   0.00000   0.00000   0.00000
  18        5XZ         0.00000   0.00000   0.00000   0.00000   0.00000
  19        5YZ         0.00000   0.00017   0.00000   0.00000   0.00007
  20 2   C  1S          0.00001   0.70188   0.70196  -0.01211  -0.01214
  21        2S          0.00013   0.03511   0.03531  -0.00090  -0.00088
  22        2PX         0.00000   0.00000   0.00000   0.00000   0.00000
  23        2PY        -0.00005  -0.00036  -0.00038   0.00009   0.00014
  24        2PZ         0.00005   0.00030   0.00027   0.00024   0.00015
  25        3S          0.00014  -0.00993  -0.01252   0.00286   0.00583
  26        3PX         0.00000   0.00000   0.00000   0.00000   0.00000
  27        3PY        -0.00024   0.00172   0.00242  -0.00052  -0.00206
  28        3PZ        -0.00004   0.00064  -0.00005  -0.00150  -0.00221
  29        4XX        -0.00002  -0.00678  -0.00667   0.00007   0.00005
  30        4YY        -0.00003  -0.00664  -0.00638   0.00002  -0.00011
  31        4ZZ        -0.00002  -0.00657  -0.00647  -0.00009  -0.00019
  32        4XY         0.00000   0.00000   0.00000   0.00000   0.00000
  33        4XZ         0.00000   0.00000   0.00000   0.00000   0.00000
  34        4YZ         0.00008   0.00012   0.00018   0.00000  -0.00005
  35 3   C  1S          0.00001  -0.70188   0.70196  -0.01211   0.01214
  36        2S          0.00013  -0.03511   0.03531  -0.00090   0.00088
  37        2PX         0.00000   0.00000   0.00000   0.00000   0.00000
  38        2PY         0.00005  -0.00036   0.00038  -0.00009   0.00014
  39        2PZ         0.00005  -0.00030   0.00027   0.00024  -0.00015
  40        3S          0.00014   0.00993  -0.01252   0.00286  -0.00583
  41        3PX         0.00000   0.00000   0.00000   0.00000   0.00000
  42        3PY         0.00024   0.00172  -0.00242   0.00052  -0.00206
  43        3PZ        -0.00004  -0.00064  -0.00005  -0.00150   0.00221
  44        4XX        -0.00002   0.00678  -0.00667   0.00007  -0.00005
  45        4YY        -0.00003   0.00664  -0.00638   0.00002   0.00011
  46        4ZZ        -0.00002   0.00657  -0.00647  -0.00009   0.00019
  47        4XY         0.00000   0.00000   0.00000   0.00000   0.00000
  48        4XZ         0.00000   0.00000   0.00000   0.00000   0.00000
  49        4YZ        -0.00008   0.00012  -0.00018   0.00000  -0.00005
  50 4   C  1S          0.00000   0.01182   0.01181   0.70175   0.70203
  51        2S         -0.00001   0.00033   0.00014   0.03494   0.03558
  52        2PX         0.00000   0.00000   0.00000   0.00000   0.00000
  53        2PY        -0.00002  -0.00008   0.00003   0.00011  -0.00027
  54        2PZ        -0.00004  -0.00022  -0.00019   0.00018   0.00028
  55        3S         -0.00020   0.00410   0.00322  -0.00758  -0.01741
  56        3PX         0.00000   0.00000   0.00000   0.00000   0.00000
  57        3PY         0.00009   0.00015   0.00002  -0.00061   0.00325
  58        3PZ        -0.00016   0.00184   0.00186  -0.00115  -0.00371
  59        4XX         0.00000  -0.00018  -0.00022  -0.00689  -0.00665
  60        4YY         0.00003  -0.00034  -0.00020  -0.00692  -0.00622
  61        4ZZ         0.00000  -0.00035  -0.00028  -0.00664  -0.00632
  62        4XY         0.00000   0.00000   0.00000   0.00000   0.00000
  63        4XZ         0.00000   0.00000   0.00000   0.00000   0.00000
  64        4YZ        -0.00002   0.00001  -0.00009  -0.00001   0.00003
  65 5   C  1S          0.00000  -0.01182   0.01181   0.70175  -0.70203
  66        2S         -0.00001  -0.00033   0.00014   0.03494  -0.03558
  67        2PX         0.00000   0.00000   0.00000   0.00000   0.00000
  68        2PY         0.00002  -0.00008  -0.00003  -0.00011  -0.00027
  69        2PZ        -0.00004   0.00022  -0.00019   0.00018  -0.00028
  70        3S         -0.00020  -0.00410   0.00322  -0.00758   0.01741
  71        3PX         0.00000   0.00000   0.00000   0.00000   0.00000
  72        3PY        -0.00009   0.00015  -0.00002   0.00061   0.00325
  73        3PZ        -0.00016  -0.00184   0.00186  -0.00115   0.00371
  74        4XX         0.00000   0.00018  -0.00022  -0.00689   0.00665
  75        4YY         0.00003   0.00034  -0.00020  -0.00692   0.00622
  76        4ZZ         0.00000   0.00035  -0.00028  -0.00664   0.00632
  77        4XY         0.00000   0.00000   0.00000   0.00000   0.00000
  78        4XZ         0.00000   0.00000   0.00000   0.00000   0.00000
  79        4YZ         0.00002   0.00001   0.00009   0.00001   0.00003
  80 6   H  1S          0.00000  -0.00029  -0.00029  -0.00004   0.00003
  81        2S          0.00000   0.00080   0.00105   0.00008   0.00035
  82 7   H  1S          0.00000   0.00029  -0.00029  -0.00004  -0.00003
  83        2S          0.00000  -0.00080   0.00105   0.00008  -0.00035
  84 8   H  1S         -0.00002  -0.00002  -0.00002  -0.00032  -0.00030
  85        2S         -0.00005   0.00011   0.00043   0.00123   0.00049
  86 9   H  1S         -0.00002   0.00002  -0.00002  -0.00032   0.00030
  87        2S         -0.00005  -0.00011   0.00043   0.00123  -0.00049
                           6         7         8         9        10
                        (A1)--O   (B2)--O   (A1)--O   (B1)--O   (A1)--O
     Eigenvalues --    -8.03811  -6.00310  -5.99917  -5.99600  -0.96037
   1 1   S  1S         -0.27963   0.00000  -0.00212   0.00000   0.04045
   2        2S          1.02187   0.00000   0.00794   0.00000  -0.18382
   3        2PX         0.00000   0.00000   0.00000   0.99123   0.00000
   4        2PY         0.00000   0.99034   0.00000   0.00000   0.00000
   5        2PZ        -0.00690   0.00000   0.99040   0.00000   0.05321
   6        3S          0.07920   0.00000   0.00026   0.00000   0.36576
   7        3PX         0.00000   0.00000   0.00000   0.02923   0.00000
   8        3PY         0.00000   0.03330   0.00000   0.00000   0.00000
   9        3PZ        -0.00251   0.00000   0.03312   0.00000  -0.12031
  10        4S         -0.01459   0.00000  -0.01020   0.00000   0.05637
  11        4PX         0.00000   0.00000   0.00000  -0.00861   0.00000
  12        4PY         0.00000  -0.00776   0.00000   0.00000   0.00000
  13        4PZ         0.00110   0.00000  -0.00364   0.00000   0.01684
  14        5XX        -0.01811   0.00000   0.00059   0.00000  -0.02162
  15        5YY        -0.01719   0.00000  -0.00077   0.00000   0.00522
  16        5ZZ        -0.01718   0.00000  -0.00268   0.00000   0.01667
  17        5XY         0.00000   0.00000   0.00000   0.00000   0.00000
  18        5XZ         0.00000   0.00000   0.00000  -0.00052   0.00000
  19        5YZ         0.00000  -0.00253   0.00000   0.00000   0.00000
  20 2   C  1S         -0.00011  -0.00003  -0.00008   0.00000  -0.09908
  21        2S          0.00027   0.00123  -0.00159   0.00000   0.18358
  22        2PX         0.00000   0.00000   0.00000  -0.00032   0.00000
  23        2PY         0.00030   0.00033  -0.00016   0.00000  -0.07523
  24        2PZ        -0.00039  -0.00036   0.00042   0.00000  -0.00953
  25        3S         -0.00085  -0.00853   0.00840   0.00000   0.14634
  26        3PX         0.00000   0.00000   0.00000   0.00059   0.00000
  27        3PY         0.00326   0.00822  -0.00917   0.00000  -0.02308
  28        3PZ         0.00049   0.00088   0.00003   0.00000   0.00698
  29        4XX         0.00015   0.00034  -0.00055   0.00000  -0.01228
  30        4YY        -0.00056  -0.00047   0.00097   0.00000   0.00622
  31        4ZZ        -0.00057  -0.00120   0.00025   0.00000   0.00208
  32        4XY         0.00000   0.00000   0.00000   0.00045   0.00000
  33        4XZ         0.00000   0.00000   0.00000  -0.00036   0.00000
  34        4YZ         0.00035   0.00078  -0.00063   0.00000  -0.00031
  35 3   C  1S         -0.00011   0.00003  -0.00008   0.00000  -0.09908
  36        2S          0.00027  -0.00123  -0.00159   0.00000   0.18358
  37        2PX         0.00000   0.00000   0.00000  -0.00032   0.00000
  38        2PY        -0.00030   0.00033   0.00016   0.00000   0.07523
  39        2PZ        -0.00039   0.00036   0.00042   0.00000  -0.00953
  40        3S         -0.00085   0.00853   0.00840   0.00000   0.14634
  41        3PX         0.00000   0.00000   0.00000   0.00059   0.00000
  42        3PY        -0.00326   0.00822   0.00917   0.00000   0.02308
  43        3PZ         0.00049  -0.00088   0.00003   0.00000   0.00698
  44        4XX         0.00015  -0.00034  -0.00055   0.00000  -0.01228
  45        4YY        -0.00056   0.00047   0.00097   0.00000   0.00622
  46        4ZZ        -0.00057   0.00120   0.00025   0.00000   0.00208
  47        4XY         0.00000   0.00000   0.00000  -0.00045   0.00000
  48        4XZ         0.00000   0.00000   0.00000  -0.00036   0.00000
  49        4YZ        -0.00035   0.00078   0.00063   0.00000   0.00031
  50 4   C  1S         -0.00007  -0.00021   0.00009   0.00000  -0.09092
  51        2S         -0.00044  -0.00128   0.00066   0.00000   0.16969
  52        2PX         0.00000   0.00000   0.00000  -0.00007   0.00000
  53        2PY         0.00035   0.00013  -0.00044   0.00000  -0.03537
  54        2PZ         0.00008  -0.00007  -0.00033   0.00000   0.06566
  55        3S          0.00174   0.01638  -0.00417   0.00000   0.10209
  56        3PX         0.00000   0.00000   0.00000   0.00026   0.00000
  57        3PY        -0.00160  -0.00876   0.00254   0.00000  -0.00436
  58        3PZ         0.00241   0.00839  -0.00445   0.00000   0.00554
  59        4XX        -0.00014  -0.00040   0.00011   0.00000  -0.01108
  60        4YY        -0.00010   0.00027   0.00015   0.00000   0.00212
  61        4ZZ         0.00014   0.00005  -0.00037   0.00000   0.00424
  62        4XY         0.00000   0.00000   0.00000  -0.00005   0.00000
  63        4XZ         0.00000   0.00000   0.00000   0.00006   0.00000
  64        4YZ         0.00002   0.00009   0.00017   0.00000  -0.00230
  65 5   C  1S         -0.00007   0.00021   0.00009   0.00000  -0.09092
  66        2S         -0.00044   0.00128   0.00066   0.00000   0.16969
  67        2PX         0.00000   0.00000   0.00000  -0.00007   0.00000
  68        2PY        -0.00035   0.00013   0.00044   0.00000   0.03537
  69        2PZ         0.00008   0.00007  -0.00033   0.00000   0.06566
  70        3S          0.00174  -0.01638  -0.00417   0.00000   0.10209
  71        3PX         0.00000   0.00000   0.00000   0.00026   0.00000
  72        3PY         0.00160  -0.00876  -0.00254   0.00000   0.00436
  73        3PZ         0.00241  -0.00839  -0.00445   0.00000   0.00554
  74        4XX        -0.00014   0.00040   0.00011   0.00000  -0.01108
  75        4YY        -0.00010  -0.00027   0.00015   0.00000   0.00212
  76        4ZZ         0.00014  -0.00005  -0.00037   0.00000   0.00424
  77        4XY         0.00000   0.00000   0.00000   0.00005   0.00000
  78        4XZ         0.00000   0.00000   0.00000   0.00006   0.00000
  79        4YZ        -0.00002   0.00009  -0.00017   0.00000   0.00230
  80 6   H  1S         -0.00025  -0.00049   0.00012   0.00000   0.03350
  81        2S         -0.00096  -0.00132   0.00391   0.00000   0.00541
  82 7   H  1S         -0.00025   0.00049   0.00012   0.00000   0.03350
  83        2S         -0.00096   0.00132   0.00391   0.00000   0.00541
  84 8   H  1S          0.00023   0.00046  -0.00027   0.00000   0.02859
  85        2S          0.00114   0.00348  -0.00182   0.00000   0.00277
  86 9   H  1S          0.00023  -0.00046  -0.00027   0.00000   0.02859
  87        2S          0.00114  -0.00348  -0.00182   0.00000   0.00277
                          11        12        13        14        15
                        (A1)--O   (B2)--O   (A1)--O   (B2)--O   (A1)--O
     Eigenvalues --    -0.80970  -0.80066  -0.63323  -0.62117  -0.58313
   1 1   S  1S          0.05154   0.00000   0.03202   0.00000  -0.01881
   2        2S         -0.23392   0.00000  -0.14498   0.00000   0.08687
   3        2PX         0.00000   0.00000   0.00000   0.00000   0.00000
   4        2PY         0.00000  -0.06148   0.00000  -0.10212   0.00000
   5        2PZ         0.02133   0.00000  -0.01462   0.00000   0.06829
   6        3S          0.48946   0.00000   0.32330   0.00000  -0.18653
   7        3PX         0.00000   0.00000   0.00000   0.00000   0.00000
   8        3PY         0.00000   0.14294   0.00000   0.25078   0.00000
   9        3PZ        -0.05381   0.00000   0.03604   0.00000  -0.16731
  10        4S          0.15903   0.00000   0.14000   0.00000  -0.14091
  11        4PX         0.00000   0.00000   0.00000   0.00000   0.00000
  12        4PY         0.00000  -0.00237   0.00000   0.03228   0.00000
  13        4PZ         0.00488   0.00000   0.01904   0.00000  -0.02653
  14        5XX        -0.01702   0.00000  -0.00258   0.00000  -0.00456
  15        5YY         0.01191   0.00000  -0.01389   0.00000  -0.01847
  16        5ZZ        -0.00427   0.00000  -0.00170   0.00000   0.03262
  17        5XY         0.00000   0.00000   0.00000   0.00000   0.00000
  18        5XZ         0.00000   0.00000   0.00000   0.00000   0.00000
  19        5YZ         0.00000  -0.03671   0.00000  -0.03891   0.00000
  20 2   C  1S         -0.00910  -0.13297   0.09546  -0.05000  -0.00861
  21        2S          0.01978   0.26131  -0.19568   0.10318   0.01433
  22        2PX         0.00000   0.00000   0.00000   0.00000   0.00000
  23        2PY        -0.01785  -0.00260  -0.15755   0.04919  -0.17662
  24        2PZ         0.13859  -0.04688   0.04650   0.20199  -0.09699
  25        3S          0.01899   0.23307  -0.17571   0.09314   0.02030
  26        3PX         0.00000   0.00000   0.00000   0.00000   0.00000
  27        3PY         0.00483   0.00058  -0.06674   0.03206  -0.08110
  28        3PZ         0.03621   0.00437  -0.00235   0.08611  -0.03836
  29        4XX        -0.00052  -0.01320   0.00849  -0.00443  -0.00202
  30        4YY         0.00415   0.00199  -0.00457   0.00888   0.00156
  31        4ZZ        -0.00188   0.00311   0.00538  -0.00581  -0.00519
  32        4XY         0.00000   0.00000   0.00000   0.00000   0.00000
  33        4XZ         0.00000   0.00000   0.00000   0.00000   0.00000
  34        4YZ        -0.01248   0.00351  -0.00730  -0.00389   0.00380
  35 3   C  1S         -0.00910   0.13297   0.09546   0.05000  -0.00861
  36        2S          0.01978  -0.26131  -0.19568  -0.10318   0.01433
  37        2PX         0.00000   0.00000   0.00000   0.00000   0.00000
  38        2PY         0.01785  -0.00260   0.15755   0.04919   0.17662
  39        2PZ         0.13859   0.04688   0.04650  -0.20199  -0.09699
  40        3S          0.01899  -0.23307  -0.17571  -0.09314   0.02030
  41        3PX         0.00000   0.00000   0.00000   0.00000   0.00000
  42        3PY        -0.00483   0.00058   0.06674   0.03206   0.08110
  43        3PZ         0.03621  -0.00437  -0.00235  -0.08611  -0.03836
  44        4XX        -0.00052   0.01320   0.00849   0.00443  -0.00202
  45        4YY         0.00415  -0.00199  -0.00457  -0.00888   0.00156
  46        4ZZ        -0.00188  -0.00311   0.00538   0.00581  -0.00519
  47        4XY         0.00000   0.00000   0.00000   0.00000   0.00000
  48        4XZ         0.00000   0.00000   0.00000   0.00000   0.00000
  49        4YZ         0.01248   0.00351   0.00730  -0.00389  -0.00380
  50 4   C  1S          0.11791  -0.08311  -0.03624   0.09289   0.01765
  51        2S         -0.23108   0.16524   0.07544  -0.19261  -0.03598
  52        2PX         0.00000   0.00000   0.00000   0.00000   0.00000
  53        2PY         0.05883   0.09445  -0.16000  -0.11924  -0.08874
  54        2PZ         0.01377   0.07414  -0.11739   0.04711   0.25174
  55        3S         -0.16976   0.11060   0.05601  -0.13324  -0.06879
  56        3PX         0.00000   0.00000   0.00000   0.00000   0.00000
  57        3PY         0.00671   0.03096  -0.04113  -0.04975  -0.03187
  58        3PZ         0.01590  -0.00886  -0.04463   0.05985   0.07799
  59        4XX         0.01207  -0.00791  -0.00330   0.00783   0.00062
  60        4YY        -0.00634  -0.00926   0.00442   0.00835  -0.00342
  61        4ZZ         0.00401   0.00830  -0.00449  -0.00414  -0.00068
  62        4XY         0.00000   0.00000   0.00000   0.00000   0.00000
  63        4XZ         0.00000   0.00000   0.00000   0.00000   0.00000
  64        4YZ         0.00281   0.00385  -0.00753   0.00839   0.00011
  65 5   C  1S          0.11791   0.08311  -0.03624  -0.09289   0.01765
  66        2S         -0.23108  -0.16524   0.07544   0.19261  -0.03598
  67        2PX         0.00000   0.00000   0.00000   0.00000   0.00000
  68        2PY        -0.05883   0.09445   0.16000  -0.11924   0.08874
  69        2PZ         0.01377  -0.07414  -0.11739  -0.04711   0.25174
  70        3S         -0.16976  -0.11060   0.05601   0.13324  -0.06879
  71        3PX         0.00000   0.00000   0.00000   0.00000   0.00000
  72        3PY        -0.00671   0.03096   0.04113  -0.04975   0.03187
  73        3PZ         0.01590   0.00886  -0.04463  -0.05985   0.07799
  74        4XX         0.01207   0.00791  -0.00330  -0.00783   0.00062
  75        4YY        -0.00634   0.00926   0.00442  -0.00835  -0.00342
  76        4ZZ         0.00401  -0.00830  -0.00449   0.00414  -0.00068
  77        4XY         0.00000   0.00000   0.00000   0.00000   0.00000
  78        4XZ         0.00000   0.00000   0.00000   0.00000   0.00000
  79        4YZ        -0.00281   0.00385   0.00753   0.00839  -0.00011
  80 6   H  1S          0.01234   0.08754  -0.15323   0.09641  -0.09201
  81        2S         -0.00347   0.02584  -0.07805   0.04721  -0.04988
  82 7   H  1S          0.01234  -0.08754  -0.15323  -0.09641  -0.09201
  83        2S         -0.00347  -0.02584  -0.07805  -0.04721  -0.04988
  84 8   H  1S         -0.07163   0.05249   0.03686  -0.13429  -0.14925
  85        2S         -0.01635   0.00685   0.01591  -0.06028  -0.09884
  86 9   H  1S         -0.07163  -0.05249   0.03686   0.13429  -0.14925
  87        2S         -0.01635  -0.00685   0.01591   0.06028  -0.09884
                          16        17        18        19        20
                        (B2)--O   (A1)--O   (B2)--O   (B1)--O   (A1)--O
     Eigenvalues --    -0.47620  -0.45251  -0.44520  -0.44450  -0.40059
   1 1   S  1S          0.00000   0.01277   0.00000   0.00000   0.01962
   2        2S          0.00000  -0.05794   0.00000   0.00000  -0.09623
   3        2PX         0.00000   0.00000   0.00000  -0.14323   0.00000
   4        2PY         0.05446   0.00000  -0.16463   0.00000   0.00000
   5        2PZ         0.00000  -0.01986   0.00000   0.00000  -0.22044
   6        3S          0.00000   0.13318   0.00000   0.00000   0.18949
   7        3PX         0.00000   0.00000   0.00000   0.36854   0.00000
   8        3PY        -0.14040   0.00000   0.42648   0.00000   0.00000
   9        3PZ         0.00000   0.04651   0.00000   0.00000   0.57664
  10        4S          0.00000   0.13049   0.00000   0.00000   0.26948
  11        4PX         0.00000   0.00000   0.00000   0.15551   0.00000
  12        4PY        -0.00190   0.00000   0.09780   0.00000   0.00000
  13        4PZ         0.00000  -0.00058   0.00000   0.00000   0.19546
  14        5XX         0.00000   0.00543   0.00000   0.00000   0.02219
  15        5YY         0.00000  -0.02194   0.00000   0.00000  -0.02217
  16        5ZZ         0.00000   0.01329   0.00000   0.00000  -0.02390
  17        5XY         0.00000   0.00000   0.00000   0.00000   0.00000
  18        5XZ         0.00000   0.00000   0.00000  -0.03742   0.00000
  19        5YZ         0.03717   0.00000  -0.05117   0.00000   0.00000
  20 2   C  1S          0.02716   0.00489   0.01995   0.00000   0.01700
  21        2S         -0.06061  -0.00377  -0.03921   0.00000  -0.03607
  22        2PX         0.00000   0.00000   0.00000   0.23239   0.00000
  23        2PY         0.29029  -0.11952  -0.16759   0.00000   0.11224
  24        2PZ         0.11687  -0.18445   0.21199   0.00000  -0.17718
  25        3S         -0.11536  -0.04189  -0.06074   0.00000  -0.09117
  26        3PX         0.00000   0.00000   0.00000   0.14167   0.00000
  27        3PY         0.11201  -0.02604  -0.04887   0.00000   0.05719
  28        3PZ         0.03772  -0.08937   0.11940   0.00000  -0.06215
  29        4XX         0.00096   0.00147   0.00233   0.00000   0.00114
  30        4YY         0.01134  -0.01469  -0.00676   0.00000  -0.00750
  31        4ZZ        -0.00511   0.00800   0.01106   0.00000   0.00373
  32        4XY         0.00000   0.00000   0.00000  -0.01310   0.00000
  33        4XZ         0.00000   0.00000   0.00000  -0.00045   0.00000
  34        4YZ         0.00400  -0.00918  -0.01575   0.00000   0.01444
  35 3   C  1S         -0.02716   0.00489  -0.01995   0.00000   0.01700
  36        2S          0.06061  -0.00377   0.03921   0.00000  -0.03607
  37        2PX         0.00000   0.00000   0.00000   0.23239   0.00000
  38        2PY         0.29029   0.11952  -0.16759   0.00000  -0.11224
  39        2PZ        -0.11687  -0.18445  -0.21199   0.00000  -0.17718
  40        3S          0.11536  -0.04189   0.06074   0.00000  -0.09117
  41        3PX         0.00000   0.00000   0.00000   0.14167   0.00000
  42        3PY         0.11201   0.02604  -0.04887   0.00000  -0.05719
  43        3PZ        -0.03772  -0.08937  -0.11940   0.00000  -0.06215
  44        4XX        -0.00096   0.00147  -0.00233   0.00000   0.00114
  45        4YY        -0.01134  -0.01469   0.00676   0.00000  -0.00750
  46        4ZZ         0.00511   0.00800  -0.01106   0.00000   0.00373
  47        4XY         0.00000   0.00000   0.00000   0.01310   0.00000
  48        4XZ         0.00000   0.00000   0.00000  -0.00045   0.00000
  49        4YZ         0.00400   0.00918  -0.01575   0.00000  -0.01444
  50 4   C  1S          0.01020   0.00630  -0.01887   0.00000  -0.02578
  51        2S         -0.02800  -0.01776   0.03109   0.00000   0.05979
  52        2PX         0.00000   0.00000   0.00000   0.21894   0.00000
  53        2PY         0.02550   0.37102   0.01226   0.00000  -0.07630
  54        2PZ        -0.23660   0.05345  -0.19350   0.00000   0.15228
  55        3S          0.00463  -0.03415   0.12675   0.00000   0.09291
  56        3PX         0.00000   0.00000   0.00000   0.11963   0.00000
  57        3PY         0.01479   0.12605  -0.01169   0.00000  -0.01245
  58        3PZ        -0.03599   0.02363  -0.02574   0.00000   0.05899
  59        4XX        -0.00009  -0.00025  -0.00264   0.00000  -0.00087
  60        4YY         0.01095  -0.01031  -0.00269   0.00000   0.00485
  61        4ZZ        -0.00358   0.01442   0.00662   0.00000  -0.01170
  62        4XY         0.00000   0.00000   0.00000  -0.00550   0.00000
  63        4XZ         0.00000   0.00000   0.00000   0.01024   0.00000
  64        4YZ        -0.01343  -0.00388  -0.01931   0.00000   0.00684
  65 5   C  1S         -0.01020   0.00630   0.01887   0.00000  -0.02578
  66        2S          0.02800  -0.01776  -0.03109   0.00000   0.05979
  67        2PX         0.00000   0.00000   0.00000   0.21894   0.00000
  68        2PY         0.02550  -0.37102   0.01226   0.00000   0.07630
  69        2PZ         0.23660   0.05345   0.19350   0.00000   0.15228
  70        3S         -0.00463  -0.03415  -0.12675   0.00000   0.09291
  71        3PX         0.00000   0.00000   0.00000   0.11963   0.00000
  72        3PY         0.01479  -0.12605  -0.01169   0.00000   0.01245
  73        3PZ         0.03599   0.02363   0.02574   0.00000   0.05899
  74        4XX         0.00009  -0.00025   0.00264   0.00000  -0.00087
  75        4YY        -0.01095  -0.01031   0.00269   0.00000   0.00485
  76        4ZZ         0.00358   0.01442  -0.00662   0.00000  -0.01170
  77        4XY         0.00000   0.00000   0.00000   0.00550   0.00000
  78        4XZ         0.00000   0.00000   0.00000   0.01024   0.00000
  79        4YZ        -0.01343   0.00388  -0.01931   0.00000  -0.00684
  80 6   H  1S          0.16535  -0.12291  -0.09979   0.00000   0.02346
  81        2S          0.14856  -0.11560  -0.09953   0.00000   0.02734
  82 7   H  1S         -0.16535  -0.12291   0.09979   0.00000   0.02346
  83        2S         -0.14856  -0.11560   0.09953   0.00000   0.02734
  84 8   H  1S          0.12334   0.10107   0.14206   0.00000  -0.09346
  85        2S          0.12415   0.09938   0.14253   0.00000  -0.11201
  86 9   H  1S         -0.12334   0.10107  -0.14206   0.00000  -0.09346
  87        2S         -0.12415   0.09938  -0.14253   0.00000  -0.11201
                          21        22        23        24        25
                        (B1)--O   (A2)--O   (B1)--V   (B2)--V   (A2)--V
     Eigenvalues --    -0.30201  -0.28935   0.04348   0.09075   0.12807
   1 1   S  1S          0.00000   0.00000   0.00000   0.00000   0.00000
   2        2S          0.00000   0.00000   0.00000   0.00000   0.00000
   3        2PX        -0.20700   0.00000   0.11667   0.00000   0.00000
   4        2PY         0.00000   0.00000   0.00000  -0.14394   0.00000
   5        2PZ         0.00000   0.00000   0.00000   0.00000   0.00000
   6        3S          0.00000   0.00000   0.00000   0.00000   0.00000
   7        3PX         0.55321   0.00000  -0.32650   0.00000   0.00000
   8        3PY         0.00000   0.00000   0.00000   0.38532   0.00000
   9        3PZ         0.00000   0.00000   0.00000   0.00000   0.00000
  10        4S          0.00000   0.00000   0.00000   0.00000   0.00000
  11        4PX         0.31746   0.00000  -0.38859   0.00000   0.00000
  12        4PY         0.00000   0.00000   0.00000   1.16055   0.00000
  13        4PZ         0.00000   0.00000   0.00000   0.00000   0.00000
  14        5XX         0.00000   0.00000   0.00000   0.00000   0.00000
  15        5YY         0.00000   0.00000   0.00000   0.00000   0.00000
  16        5ZZ         0.00000   0.00000   0.00000   0.00000   0.00000
  17        5XY         0.00000   0.05533   0.00000   0.00000  -0.08825
  18        5XZ        -0.00725   0.00000  -0.06725   0.00000   0.00000
  19        5YZ         0.00000   0.00000   0.00000   0.16126   0.00000
  20 2   C  1S          0.00000   0.00000   0.00000   0.07516   0.00000
  21        2S          0.00000   0.00000   0.00000  -0.11551   0.00000
  22        2PX        -0.02318   0.36030   0.35016   0.00000  -0.20935
  23        2PY         0.00000   0.00000   0.00000   0.12278   0.00000
  24        2PZ         0.00000   0.00000   0.00000  -0.20192   0.00000
  25        3S          0.00000   0.00000   0.00000  -0.93066   0.00000
  26        3PX        -0.00991   0.29013   0.49161   0.00000  -0.42807
  27        3PY         0.00000   0.00000   0.00000   0.15206   0.00000
  28        3PZ         0.00000   0.00000   0.00000  -0.34796   0.00000
  29        4XX         0.00000   0.00000   0.00000   0.00669   0.00000
  30        4YY         0.00000   0.00000   0.00000  -0.00807   0.00000
  31        4ZZ         0.00000   0.00000   0.00000   0.02194   0.00000
  32        4XY        -0.00364  -0.00603   0.00703   0.00000  -0.00265
  33        4XZ         0.02085  -0.00476   0.00507   0.00000  -0.03055
  34        4YZ         0.00000   0.00000   0.00000   0.00204   0.00000
  35 3   C  1S          0.00000   0.00000   0.00000  -0.07516   0.00000
  36        2S          0.00000   0.00000   0.00000   0.11551   0.00000
  37        2PX        -0.02318  -0.36030   0.35016   0.00000   0.20935
  38        2PY         0.00000   0.00000   0.00000   0.12278   0.00000
  39        2PZ         0.00000   0.00000   0.00000   0.20192   0.00000
  40        3S          0.00000   0.00000   0.00000   0.93066   0.00000
  41        3PX        -0.00991  -0.29013   0.49161   0.00000   0.42807
  42        3PY         0.00000   0.00000   0.00000   0.15206   0.00000
  43        3PZ         0.00000   0.00000   0.00000   0.34796   0.00000
  44        4XX         0.00000   0.00000   0.00000  -0.00669   0.00000
  45        4YY         0.00000   0.00000   0.00000   0.00807   0.00000
  46        4ZZ         0.00000   0.00000   0.00000  -0.02194   0.00000
  47        4XY         0.00364  -0.00603  -0.00703   0.00000  -0.00265
  48        4XZ         0.02085   0.00476   0.00507   0.00000   0.03055
  49        4YZ         0.00000   0.00000   0.00000   0.00204   0.00000
  50 4   C  1S          0.00000   0.00000   0.00000  -0.01323   0.00000
  51        2S          0.00000   0.00000   0.00000   0.03423   0.00000
  52        2PX        -0.27766   0.21883  -0.20124   0.00000   0.38455
  53        2PY         0.00000   0.00000   0.00000   0.07867   0.00000
  54        2PZ         0.00000   0.00000   0.00000   0.05913   0.00000
  55        3S          0.00000   0.00000   0.00000   0.01636   0.00000
  56        3PX        -0.20767   0.15172  -0.27546   0.00000   0.68102
  57        3PY         0.00000   0.00000   0.00000   0.16761   0.00000
  58        3PZ         0.00000   0.00000   0.00000   0.04355   0.00000
  59        4XX         0.00000   0.00000   0.00000  -0.00012   0.00000
  60        4YY         0.00000   0.00000   0.00000   0.00770   0.00000
  61        4ZZ         0.00000   0.00000   0.00000  -0.01178   0.00000
  62        4XY         0.00917   0.01420   0.01791   0.00000   0.01689
  63        4XZ        -0.00163   0.01309   0.01907   0.00000  -0.00847
  64        4YZ         0.00000   0.00000   0.00000   0.00597   0.00000
  65 5   C  1S          0.00000   0.00000   0.00000   0.01323   0.00000
  66        2S          0.00000   0.00000   0.00000  -0.03423   0.00000
  67        2PX        -0.27766  -0.21883  -0.20124   0.00000  -0.38455
  68        2PY         0.00000   0.00000   0.00000   0.07867   0.00000
  69        2PZ         0.00000   0.00000   0.00000  -0.05913   0.00000
  70        3S          0.00000   0.00000   0.00000  -0.01636   0.00000
  71        3PX        -0.20767  -0.15172  -0.27546   0.00000  -0.68102
  72        3PY         0.00000   0.00000   0.00000   0.16761   0.00000
  73        3PZ         0.00000   0.00000   0.00000  -0.04355   0.00000
  74        4XX         0.00000   0.00000   0.00000   0.00012   0.00000
  75        4YY         0.00000   0.00000   0.00000  -0.00770   0.00000
  76        4ZZ         0.00000   0.00000   0.00000   0.01178   0.00000
  77        4XY        -0.00917   0.01420  -0.01791   0.00000   0.01689
  78        4XZ        -0.00163  -0.01309   0.01907   0.00000   0.00847
  79        4YZ         0.00000   0.00000   0.00000   0.00597   0.00000
  80 6   H  1S          0.00000   0.00000   0.00000  -0.01686   0.00000
  81        2S          0.00000   0.00000   0.00000   0.17071   0.00000
  82 7   H  1S          0.00000   0.00000   0.00000   0.01686   0.00000
  83        2S          0.00000   0.00000   0.00000  -0.17071   0.00000
  84 8   H  1S          0.00000   0.00000   0.00000  -0.04610   0.00000
  85        2S          0.00000   0.00000   0.00000  -0.18437   0.00000
  86 9   H  1S          0.00000   0.00000   0.00000   0.04610   0.00000
  87        2S          0.00000   0.00000   0.00000   0.18437   0.00000
                          26        27        28        29        30
                        (A1)--V   (A1)--V   (B2)--V   (B2)--V   (A1)--V
     Eigenvalues --     0.15301   0.16363   0.20598   0.22987   0.23032
   1 1   S  1S         -0.00355   0.03246   0.00000   0.00000   0.00626
   2        2S          0.01727  -0.16711   0.00000   0.00000  -0.05161
   3        2PX         0.00000   0.00000   0.00000   0.00000   0.00000
   4        2PY         0.00000   0.00000   0.03462  -0.03492   0.00000
   5        2PZ         0.00425   0.09532   0.00000   0.00000  -0.03275
   6        3S         -0.03780   0.32011   0.00000   0.00000   0.00027
   7        3PX         0.00000   0.00000   0.00000   0.00000   0.00000
   8        3PY         0.00000   0.00000  -0.12757   0.13946   0.00000
   9        3PZ        -0.03048  -0.26212   0.00000   0.00000   0.11591
  10        4S         -0.20841   1.55685   0.00000   0.00000   1.36614
  11        4PX         0.00000   0.00000   0.00000   0.00000   0.00000
  12        4PY         0.00000   0.00000   0.14138   0.13755   0.00000
  13        4PZ         0.41791  -1.31896   0.00000   0.00000  -1.09789
  14        5XX        -0.01092   0.10924   0.00000   0.00000   0.06355
  15        5YY        -0.06176  -0.10085   0.00000   0.00000  -0.02531
  16        5ZZ         0.07222  -0.03546   0.00000   0.00000  -0.04531
  17        5XY         0.00000   0.00000   0.00000   0.00000   0.00000
  18        5XZ         0.00000   0.00000   0.00000   0.00000   0.00000
  19        5YZ         0.00000   0.00000  -0.03172   0.01211   0.00000
  20 2   C  1S          0.04090   0.08388   0.03916  -0.02537  -0.02419
  21        2S         -0.09095  -0.11907  -0.04158   0.05041   0.06225
  22        2PX         0.00000   0.00000   0.00000   0.00000   0.00000
  23        2PY        -0.13789   0.09850  -0.27771   0.07095   0.16086
  24        2PZ        -0.03141  -0.18111  -0.02652  -0.05913  -0.04239
  25        3S         -0.38009  -1.14581  -0.87801  -0.05147   0.19907
  26        3PX         0.00000   0.00000   0.00000   0.00000   0.00000
  27        3PY        -0.53944   0.22265  -0.82378   0.57117   1.01442
  28        3PZ        -0.24688  -0.67840  -0.26404   0.00845  -0.38772
  29        4XX        -0.00510   0.01375   0.00381  -0.00133   0.01069
  30        4YY         0.02258   0.01376   0.00651  -0.00093  -0.00242
  31        4ZZ        -0.01321  -0.00552  -0.00174  -0.00731  -0.00794
  32        4XY         0.00000   0.00000   0.00000   0.00000   0.00000
  33        4XZ         0.00000   0.00000   0.00000   0.00000   0.00000
  34        4YZ         0.00894  -0.01249   0.00785  -0.01458   0.00500
  35 3   C  1S          0.04090   0.08388  -0.03916   0.02537  -0.02419
  36        2S         -0.09095  -0.11907   0.04158  -0.05041   0.06225
  37        2PX         0.00000   0.00000   0.00000   0.00000   0.00000
  38        2PY         0.13789  -0.09850  -0.27771   0.07095  -0.16086
  39        2PZ        -0.03141  -0.18111   0.02652   0.05913  -0.04239
  40        3S         -0.38009  -1.14581   0.87801   0.05147   0.19907
  41        3PX         0.00000   0.00000   0.00000   0.00000   0.00000
  42        3PY         0.53944  -0.22265  -0.82378   0.57117  -1.01442
  43        3PZ        -0.24688  -0.67840   0.26404  -0.00845  -0.38772
  44        4XX        -0.00510   0.01375  -0.00381   0.00133   0.01069
  45        4YY         0.02258   0.01376  -0.00651   0.00093  -0.00242
  46        4ZZ        -0.01321  -0.00552   0.00174   0.00731  -0.00794
  47        4XY         0.00000   0.00000   0.00000   0.00000   0.00000
  48        4XZ         0.00000   0.00000   0.00000   0.00000   0.00000
  49        4YZ        -0.00894   0.01249   0.00785  -0.01458  -0.00500
  50 4   C  1S          0.04242  -0.00754   0.00771   0.09759   0.05211
  51        2S         -0.06002   0.02120   0.00945  -0.18296  -0.07531
  52        2PX         0.00000   0.00000   0.00000   0.00000   0.00000
  53        2PY        -0.08386  -0.01239  -0.09904  -0.00643  -0.15159
  54        2PZ         0.13186  -0.06707   0.10541   0.14937   0.10578
  55        3S         -0.83340  -0.03123  -0.51631  -1.05112  -1.06280
  56        3PX         0.00000   0.00000   0.00000   0.00000   0.00000
  57        3PY        -0.23442   0.05340  -0.12287  -0.23998  -0.63023
  58        3PZ         0.23453  -0.22930   0.24459   1.10027   0.33431
  59        4XX        -0.00100   0.00492   0.00228  -0.00041   0.00783
  60        4YY        -0.00092   0.00799  -0.01457   0.02133   0.00117
  61        4ZZ         0.00860  -0.01185   0.00980   0.00057  -0.00392
  62        4XY         0.00000   0.00000   0.00000   0.00000   0.00000
  63        4XZ         0.00000   0.00000   0.00000   0.00000   0.00000
  64        4YZ        -0.02035   0.00704  -0.00247   0.01128   0.00695
  65 5   C  1S          0.04242  -0.00754  -0.00771  -0.09759   0.05211
  66        2S         -0.06002   0.02120  -0.00945   0.18296  -0.07531
  67        2PX         0.00000   0.00000   0.00000   0.00000   0.00000
  68        2PY         0.08386   0.01239  -0.09904  -0.00643   0.15159
  69        2PZ         0.13186  -0.06707  -0.10541  -0.14937   0.10578
  70        3S         -0.83340  -0.03123   0.51631   1.05112  -1.06280
  71        3PX         0.00000   0.00000   0.00000   0.00000   0.00000
  72        3PY         0.23442  -0.05340  -0.12287  -0.23998   0.63023
  73        3PZ         0.23453  -0.22930  -0.24459  -1.10027   0.33431
  74        4XX        -0.00100   0.00492  -0.00228   0.00041   0.00783
  75        4YY        -0.00092   0.00799   0.01457  -0.02133   0.00117
  76        4ZZ         0.00860  -0.01185  -0.00980  -0.00057  -0.00392
  77        4XY         0.00000   0.00000   0.00000   0.00000   0.00000
  78        4XZ         0.00000   0.00000   0.00000   0.00000   0.00000
  79        4YZ         0.02035  -0.00704  -0.00247   0.01128  -0.00695
  80 6   H  1S          0.07245   0.05839   0.03922  -0.04662  -0.01522
  81        2S          1.01267   0.49266   1.47608  -0.64975  -1.10462
  82 7   H  1S          0.07245   0.05839  -0.03922   0.04662  -0.01522
  83        2S          1.01267   0.49266  -1.47608   0.64975  -1.10462
  84 8   H  1S          0.06416  -0.05215   0.01880   0.02278  -0.01721
  85        2S          0.92450  -0.38689   0.61430   1.61013   1.13656
  86 9   H  1S          0.06416  -0.05215  -0.01880  -0.02278  -0.01721
  87        2S          0.92450  -0.38689  -0.61430  -1.61013   1.13656
                          31        32        33        34        35
                        (A1)--V   (B2)--V   (A1)--V   (B1)--V   (A1)--V
     Eigenvalues --     0.30309   0.35334   0.36123   0.42504   0.45379
   1 1   S  1S          0.01454   0.00000  -0.06485   0.00000   0.00462
   2        2S          0.01082   0.00000   0.05642   0.00000  -0.00297
   3        2PX         0.00000   0.00000   0.00000   0.28065   0.00000
   4        2PY         0.00000   0.14561   0.00000   0.00000   0.00000
   5        2PZ         0.05093   0.00000   0.04516   0.00000   0.24875
   6        3S          0.41188   0.00000  -1.52776   0.00000   0.10335
   7        3PX         0.00000   0.00000   0.00000  -1.15319   0.00000
   8        3PY         0.00000  -0.56214   0.00000   0.00000   0.00000
   9        3PZ        -0.21311   0.00000  -0.17601   0.00000  -1.01288
  10        4S         -1.26213   0.00000   2.88116   0.00000  -0.10071
  11        4PX         0.00000   0.00000   0.00000   1.37694   0.00000
  12        4PY         0.00000   0.90554   0.00000   0.00000   0.00000
  13        4PZ         1.24947   0.00000  -0.57236   0.00000   1.07123
  14        5XX        -0.01671   0.00000   0.05491   0.00000   0.02683
  15        5YY        -0.10691   0.00000  -0.16236   0.00000  -0.03962
  16        5ZZ         0.18000   0.00000  -0.07487   0.00000   0.04201
  17        5XY         0.00000   0.00000   0.00000   0.00000   0.00000
  18        5XZ         0.00000   0.00000   0.00000   0.10681   0.00000
  19        5YZ         0.00000   0.08340   0.00000   0.00000   0.00000
  20 2   C  1S         -0.07195  -0.01306  -0.00915   0.00000   0.03255
  21        2S          0.03898   0.09429  -0.01682   0.00000  -0.13340
  22        2PX         0.00000   0.00000   0.00000  -0.06540   0.00000
  23        2PY         0.04124   0.05297  -0.06263   0.00000   0.25577
  24        2PZ        -0.13856  -0.04408  -0.01551   0.00000   0.08503
  25        3S          2.27512  -0.44034  -0.21302   0.00000  -0.23007
  26        3PX         0.00000   0.00000   0.00000  -0.15193   0.00000
  27        3PY        -0.90087   0.92842   0.28716   0.00000   0.23738
  28        3PZ        -1.09700   0.26106  -0.58017   0.00000   0.17835
  29        4XX        -0.02433   0.01609   0.03517   0.00000  -0.02630
  30        4YY         0.03619   0.00099  -0.02994   0.00000   0.03982
  31        4ZZ        -0.01895  -0.01612  -0.03292   0.00000  -0.00896
  32        4XY         0.00000   0.00000   0.00000   0.02497   0.00000
  33        4XZ         0.00000   0.00000   0.00000  -0.01142   0.00000
  34        4YZ        -0.01942   0.04109   0.01841   0.00000  -0.03153
  35 3   C  1S         -0.07195   0.01306  -0.00915   0.00000   0.03255
  36        2S          0.03898  -0.09429  -0.01682   0.00000  -0.13340
  37        2PX         0.00000   0.00000   0.00000  -0.06540   0.00000
  38        2PY        -0.04124   0.05297   0.06263   0.00000  -0.25577
  39        2PZ        -0.13856   0.04408  -0.01551   0.00000   0.08503
  40        3S          2.27512   0.44034  -0.21302   0.00000  -0.23007
  41        3PX         0.00000   0.00000   0.00000  -0.15193   0.00000
  42        3PY         0.90087   0.92842  -0.28716   0.00000  -0.23738
  43        3PZ        -1.09700  -0.26106  -0.58017   0.00000   0.17835
  44        4XX        -0.02433  -0.01609   0.03517   0.00000  -0.02630
  45        4YY         0.03619  -0.00099  -0.02994   0.00000   0.03982
  46        4ZZ        -0.01895   0.01612  -0.03292   0.00000  -0.00896
  47        4XY         0.00000   0.00000   0.00000  -0.02497   0.00000
  48        4XZ         0.00000   0.00000   0.00000  -0.01142   0.00000
  49        4YZ         0.01942   0.04109  -0.01841   0.00000   0.03153
  50 4   C  1S          0.04736  -0.06794   0.01830   0.00000  -0.02514
  51        2S         -0.02434   0.00874  -0.11783   0.00000   0.07090
  52        2PX         0.00000   0.00000   0.00000  -0.06259   0.00000
  53        2PY        -0.02459  -0.18916   0.05475   0.00000  -0.17812
  54        2PZ        -0.15842   0.05536  -0.10802   0.00000  -0.04250
  55        3S         -1.66268   2.64832  -0.33852   0.00000   0.44941
  56        3PX         0.00000   0.00000   0.00000   0.03133   0.00000
  57        3PY        -0.46933  -2.24308  -0.22110   0.00000   0.29530
  58        3PZ        -1.10209   0.79883  -0.27914   0.00000   0.72512
  59        4XX        -0.00111  -0.00938   0.00538   0.00000  -0.00533
  60        4YY        -0.00193  -0.01163  -0.02479   0.00000   0.04713
  61        4ZZ         0.01119   0.01928   0.00407   0.00000  -0.03428
  62        4XY         0.00000   0.00000   0.00000  -0.00124   0.00000
  63        4XZ         0.00000   0.00000   0.00000   0.00316   0.00000
  64        4YZ         0.02177   0.00225   0.00528   0.00000  -0.00787
  65 5   C  1S          0.04736   0.06794   0.01830   0.00000  -0.02514
  66        2S         -0.02434  -0.00874  -0.11783   0.00000   0.07090
  67        2PX         0.00000   0.00000   0.00000  -0.06259   0.00000
  68        2PY         0.02459  -0.18916  -0.05475   0.00000   0.17812
  69        2PZ        -0.15842  -0.05536  -0.10802   0.00000  -0.04250
  70        3S         -1.66268  -2.64832  -0.33852   0.00000   0.44941
  71        3PX         0.00000   0.00000   0.00000   0.03133   0.00000
  72        3PY         0.46933  -2.24308   0.22110   0.00000  -0.29530
  73        3PZ        -1.10209  -0.79883  -0.27914   0.00000   0.72512
  74        4XX        -0.00111   0.00938   0.00538   0.00000  -0.00533
  75        4YY        -0.00193   0.01163  -0.02479   0.00000   0.04713
  76        4ZZ         0.01119  -0.01928   0.00407   0.00000  -0.03428
  77        4XY         0.00000   0.00000   0.00000   0.00124   0.00000
  78        4XZ         0.00000   0.00000   0.00000   0.00316   0.00000
  79        4YZ        -0.02177   0.00225  -0.00528   0.00000   0.00787
  80 6   H  1S          0.06819   0.05088  -0.07867   0.00000   0.03835
  81        2S          0.21516  -0.79026  -0.06836   0.00000  -0.40620
  82 7   H  1S          0.06819  -0.05088  -0.07867   0.00000   0.03835
  83        2S          0.21516   0.79026  -0.06836   0.00000  -0.40620
  84 8   H  1S         -0.04677   0.03391  -0.01209   0.00000   0.01328
  85        2S         -0.24380   0.88550  -0.15905   0.00000   0.31073
  86 9   H  1S         -0.04677  -0.03391  -0.01209   0.00000   0.01328
  87        2S         -0.24380  -0.88550  -0.15905   0.00000   0.31073
                          36        37        38        39        40
                        (B2)--V   (B2)--V   (A1)--V   (A1)--V   (B1)--V
     Eigenvalues --     0.48300   0.51297   0.54034   0.59747   0.61097
   1 1   S  1S          0.00000   0.00000   0.00656   0.00173   0.00000
   2        2S          0.00000   0.00000  -0.03876   0.03164   0.00000
   3        2PX         0.00000   0.00000   0.00000   0.00000   0.02135
   4        2PY         0.26597  -0.04270   0.00000   0.00000   0.00000
   5        2PZ         0.00000   0.00000   0.15711   0.01756   0.00000
   6        3S          0.00000   0.00000   0.06705   0.12369   0.00000
   7        3PX         0.00000   0.00000   0.00000   0.00000  -0.09970
   8        3PY        -1.06725   0.19551   0.00000   0.00000   0.00000
   9        3PZ         0.00000   0.00000  -0.56573  -0.13721   0.00000
  10        4S          0.00000   0.00000  -0.36410   0.13846   0.00000
  11        4PX         0.00000   0.00000   0.00000   0.00000   0.37646
  12        4PY         0.94354  -1.36582   0.00000   0.00000   0.00000
  13        4PZ         0.00000   0.00000   0.42533   0.01499   0.00000
  14        5XX         0.00000   0.00000   0.11136  -0.16347   0.00000
  15        5YY         0.00000   0.00000   0.13230   0.33551   0.00000
  16        5ZZ         0.00000   0.00000  -0.29653  -0.08170   0.00000
  17        5XY         0.00000   0.00000   0.00000   0.00000   0.00000
  18        5XZ         0.00000   0.00000   0.00000   0.00000   0.20073
  19        5YZ        -0.09623   0.03973   0.00000   0.00000   0.00000
  20 2   C  1S         -0.01517   0.07488   0.02577  -0.02042   0.00000
  21        2S          0.03261   0.02828   0.02510  -0.01869   0.00000
  22        2PX         0.00000   0.00000   0.00000   0.00000   0.43064
  23        2PY        -0.10385   0.07131   0.07929  -0.29881   0.00000
  24        2PZ         0.22611   0.07093  -0.41968   0.07619   0.00000
  25        3S         -0.75440  -2.73902   0.14677   0.15556   0.00000
  26        3PX         0.00000   0.00000   0.00000   0.00000  -0.38347
  27        3PY        -0.14515   0.99723   0.07762   0.41196   0.00000
  28        3PZ         0.37029   2.63959   0.64619  -0.26987   0.00000
  29        4XX         0.02577  -0.01851  -0.02107   0.01710   0.00000
  30        4YY        -0.03260   0.00123  -0.02798  -0.07593   0.00000
  31        4ZZ        -0.01085   0.03941   0.06408   0.03925   0.00000
  32        4XY         0.00000   0.00000   0.00000   0.00000   0.00830
  33        4XZ         0.00000   0.00000   0.00000   0.00000  -0.03385
  34        4YZ         0.01172   0.01894   0.00003  -0.06221   0.00000
  35 3   C  1S          0.01517  -0.07488   0.02577  -0.02042   0.00000
  36        2S         -0.03261  -0.02828   0.02510  -0.01869   0.00000
  37        2PX         0.00000   0.00000   0.00000   0.00000   0.43064
  38        2PY        -0.10385   0.07131  -0.07929   0.29881   0.00000
  39        2PZ        -0.22611  -0.07093  -0.41968   0.07619   0.00000
  40        3S          0.75440   2.73902   0.14677   0.15556   0.00000
  41        3PX         0.00000   0.00000   0.00000   0.00000  -0.38347
  42        3PY        -0.14515   0.99723  -0.07762  -0.41196   0.00000
  43        3PZ        -0.37029  -2.63959   0.64619  -0.26987   0.00000
  44        4XX        -0.02577   0.01851  -0.02107   0.01710   0.00000
  45        4YY         0.03260  -0.00123  -0.02798  -0.07593   0.00000
  46        4ZZ         0.01085  -0.03941   0.06408   0.03925   0.00000
  47        4XY         0.00000   0.00000   0.00000   0.00000  -0.00830
  48        4XZ         0.00000   0.00000   0.00000   0.00000  -0.03385
  49        4YZ         0.01172   0.01894  -0.00003   0.06221   0.00000
  50 4   C  1S          0.03191  -0.06581  -0.00297   0.00244   0.00000
  51        2S         -0.09777   0.07929   0.16565  -0.14872   0.00000
  52        2PX         0.00000   0.00000   0.00000   0.00000   0.57743
  53        2PY         0.18764   0.19941   0.14743  -0.20440   0.00000
  54        2PZ        -0.02378   0.28210   0.30098  -0.01633   0.00000
  55        3S         -0.75161   2.89237   0.01142   0.14289   0.00000
  56        3PX         0.00000   0.00000   0.00000   0.00000  -0.46752
  57        3PY         1.47845   0.59159  -0.25889   0.19008   0.00000
  58        3PZ         0.43255   2.79266  -0.25267  -0.13059   0.00000
  59        4XX        -0.00380  -0.00653  -0.00098   0.00509   0.00000
  60        4YY         0.01357   0.02416   0.00215   0.00554   0.00000
  61        4ZZ        -0.01780  -0.00020   0.02376  -0.04527   0.00000
  62        4XY         0.00000   0.00000   0.00000   0.00000  -0.01761
  63        4XZ         0.00000   0.00000   0.00000   0.00000   0.03334
  64        4YZ        -0.00753   0.00740   0.04212   0.06967   0.00000
  65 5   C  1S         -0.03191   0.06581  -0.00297   0.00244   0.00000
  66        2S          0.09777  -0.07929   0.16565  -0.14872   0.00000
  67        2PX         0.00000   0.00000   0.00000   0.00000   0.57743
  68        2PY         0.18764   0.19941  -0.14743   0.20440   0.00000
  69        2PZ         0.02378  -0.28210   0.30098  -0.01633   0.00000
  70        3S          0.75161  -2.89237   0.01142   0.14289   0.00000
  71        3PX         0.00000   0.00000   0.00000   0.00000  -0.46752
  72        3PY         1.47845   0.59159   0.25889  -0.19008   0.00000
  73        3PZ        -0.43255  -2.79266  -0.25267  -0.13059   0.00000
  74        4XX         0.00380   0.00653  -0.00098   0.00509   0.00000
  75        4YY        -0.01357  -0.02416   0.00215   0.00554   0.00000
  76        4ZZ         0.01780   0.00020   0.02376  -0.04527   0.00000
  77        4XY         0.00000   0.00000   0.00000   0.00000   0.01761
  78        4XZ         0.00000   0.00000   0.00000   0.00000   0.03334
  79        4YZ        -0.00753   0.00740  -0.04212  -0.06967   0.00000
  80 6   H  1S         -0.16832   0.10295  -0.02349  -0.38607   0.00000
  81        2S          0.03187  -0.44006  -0.06664   0.15023   0.00000
  82 7   H  1S          0.16832  -0.10295  -0.02349  -0.38607   0.00000
  83        2S         -0.03187   0.44006  -0.06664   0.15023   0.00000
  84 8   H  1S         -0.00186  -0.03911  -0.11066  -0.34071   0.00000
  85        2S         -0.27682   0.80133   0.15846   0.08648   0.00000
  86 9   H  1S          0.00186   0.03911  -0.11066  -0.34071   0.00000
  87        2S          0.27682  -0.80133   0.15846   0.08648   0.00000
                          41        42        43        44        45
                        (A2)--V   (B2)--V   (A1)--V   (B1)--V   (A2)--V
     Eigenvalues --     0.63919   0.65991   0.68395   0.71080   0.71835
   1 1   S  1S          0.00000   0.00000   0.00598   0.00000   0.00000
   2        2S          0.00000   0.00000   0.00514   0.00000   0.00000
   3        2PX         0.00000   0.00000   0.00000   0.00553   0.00000
   4        2PY         0.00000  -0.02078   0.00000   0.00000   0.00000
   5        2PZ         0.00000   0.00000   0.03155   0.00000   0.00000
   6        3S          0.00000   0.00000   0.16279   0.00000   0.00000
   7        3PX         0.00000   0.00000   0.00000  -0.03177   0.00000
   8        3PY         0.00000   0.12685   0.00000   0.00000   0.00000
   9        3PZ         0.00000   0.00000  -0.15474   0.00000   0.00000
  10        4S          0.00000   0.00000  -0.09507   0.00000   0.00000
  11        4PX         0.00000   0.00000   0.00000  -0.35835   0.00000
  12        4PY         0.00000  -0.05855   0.00000   0.00000   0.00000
  13        4PZ         0.00000   0.00000   0.20087   0.00000   0.00000
  14        5XX         0.00000   0.00000  -0.06096   0.00000   0.00000
  15        5YY         0.00000   0.00000  -0.00864   0.00000   0.00000
  16        5ZZ         0.00000   0.00000   0.12127   0.00000   0.00000
  17        5XY         0.19595   0.00000   0.00000   0.00000  -0.32478
  18        5XZ         0.00000   0.00000   0.00000  -0.20079   0.00000
  19        5YZ         0.00000  -0.01738   0.00000   0.00000   0.00000
  20 2   C  1S          0.00000   0.01673   0.04613   0.00000   0.00000
  21        2S          0.00000  -0.33717  -0.26011   0.00000   0.00000
  22        2PX        -0.70658   0.00000   0.00000  -0.60328   0.19809
  23        2PY         0.00000   0.02724   0.12298   0.00000   0.00000
  24        2PZ         0.00000   0.34739   0.33324   0.00000   0.00000
  25        3S          0.00000  -0.58426  -0.03792   0.00000   0.00000
  26        3PX         0.75233   0.00000   0.00000   0.90117  -0.43419
  27        3PY         0.00000   0.57079   0.15422   0.00000   0.00000
  28        3PZ         0.00000   0.14016  -0.10939   0.00000   0.00000
  29        4XX         0.00000   0.00252  -0.02592   0.00000   0.00000
  30        4YY         0.00000  -0.03155   0.00968   0.00000   0.00000
  31        4ZZ         0.00000  -0.03427   0.03645   0.00000   0.00000
  32        4XY         0.02415   0.00000   0.00000  -0.01425   0.04498
  33        4XZ         0.03513   0.00000   0.00000  -0.00562  -0.00943
  34        4YZ         0.00000  -0.00169   0.02465   0.00000   0.00000
  35 3   C  1S          0.00000  -0.01673   0.04613   0.00000   0.00000
  36        2S          0.00000   0.33717  -0.26011   0.00000   0.00000
  37        2PX         0.70658   0.00000   0.00000  -0.60328  -0.19809
  38        2PY         0.00000   0.02724  -0.12298   0.00000   0.00000
  39        2PZ         0.00000  -0.34739   0.33324   0.00000   0.00000
  40        3S          0.00000   0.58426  -0.03792   0.00000   0.00000
  41        3PX        -0.75233   0.00000   0.00000   0.90117   0.43419
  42        3PY         0.00000   0.57079  -0.15422   0.00000   0.00000
  43        3PZ         0.00000  -0.14016  -0.10939   0.00000   0.00000
  44        4XX         0.00000  -0.00252  -0.02592   0.00000   0.00000
  45        4YY         0.00000   0.03155   0.00968   0.00000   0.00000
  46        4ZZ         0.00000   0.03427   0.03645   0.00000   0.00000
  47        4XY         0.02415   0.00000   0.00000   0.01425   0.04498
  48        4XZ        -0.03513   0.00000   0.00000  -0.00562   0.00943
  49        4YZ         0.00000  -0.00169  -0.02465   0.00000   0.00000
  50 4   C  1S          0.00000  -0.10012  -0.06187   0.00000   0.00000
  51        2S          0.00000   0.00773  -0.45877   0.00000   0.00000
  52        2PX        -0.20078   0.00000   0.00000   0.47183  -0.71678
  53        2PY         0.00000  -0.48380   0.39544   0.00000   0.00000
  54        2PZ         0.00000  -0.08082   0.23146   0.00000   0.00000
  55        3S          0.00000   1.20404   0.75718   0.00000   0.00000
  56        3PX         0.17794   0.00000   0.00000  -0.65078   1.22416
  57        3PY         0.00000   0.10618  -0.35639   0.00000   0.00000
  58        3PZ         0.00000   1.19954   0.01993   0.00000   0.00000
  59        4XX         0.00000   0.06348   0.05947   0.00000   0.00000
  60        4YY         0.00000  -0.09416  -0.09911   0.00000   0.00000
  61        4ZZ         0.00000  -0.04950  -0.12468   0.00000   0.00000
  62        4XY        -0.00737   0.00000   0.00000  -0.04211  -0.00235
  63        4XZ        -0.04885   0.00000   0.00000   0.00193  -0.00319
  64        4YZ         0.00000   0.00233  -0.02211   0.00000   0.00000
  65 5   C  1S          0.00000   0.10012  -0.06187   0.00000   0.00000
  66        2S          0.00000  -0.00773  -0.45877   0.00000   0.00000
  67        2PX         0.20078   0.00000   0.00000   0.47183   0.71678
  68        2PY         0.00000  -0.48380  -0.39544   0.00000   0.00000
  69        2PZ         0.00000   0.08082   0.23146   0.00000   0.00000
  70        3S          0.00000  -1.20404   0.75718   0.00000   0.00000
  71        3PX        -0.17794   0.00000   0.00000  -0.65078  -1.22416
  72        3PY         0.00000   0.10618   0.35639   0.00000   0.00000
  73        3PZ         0.00000  -1.19954   0.01993   0.00000   0.00000
  74        4XX         0.00000  -0.06348   0.05947   0.00000   0.00000
  75        4YY         0.00000   0.09416  -0.09911   0.00000   0.00000
  76        4ZZ         0.00000   0.04950  -0.12468   0.00000   0.00000
  77        4XY        -0.00737   0.00000   0.00000   0.04211  -0.00235
  78        4XZ         0.04885   0.00000   0.00000   0.00193   0.00319
  79        4YZ         0.00000   0.00233   0.02211   0.00000   0.00000
  80 6   H  1S          0.00000  -0.09300   0.13209   0.00000   0.00000
  81        2S          0.00000  -0.30377  -0.19560   0.00000   0.00000
  82 7   H  1S          0.00000   0.09300   0.13209   0.00000   0.00000
  83        2S          0.00000   0.30377  -0.19560   0.00000   0.00000
  84 8   H  1S          0.00000  -0.34946  -0.32212   0.00000   0.00000
  85        2S          0.00000   0.53785   0.08654   0.00000   0.00000
  86 9   H  1S          0.00000   0.34946  -0.32212   0.00000   0.00000
  87        2S          0.00000  -0.53785   0.08654   0.00000   0.00000
                          46        47        48        49        50
                        (B2)--V   (B1)--V   (A1)--V   (A2)--V   (B2)--V
     Eigenvalues --     0.85712   0.86070   0.86994   0.87543   0.89859
   1 1   S  1S          0.00000   0.00000   0.00892   0.00000   0.00000
   2        2S          0.00000   0.00000   0.00561   0.00000   0.00000
   3        2PX         0.00000  -0.05081   0.00000   0.00000   0.00000
   4        2PY         0.01397   0.00000   0.00000   0.00000   0.01859
   5        2PZ         0.00000   0.00000   0.01040   0.00000   0.00000
   6        3S          0.00000   0.00000   0.25878   0.00000   0.00000
   7        3PX         0.00000   0.21119   0.00000   0.00000   0.00000
   8        3PY         0.03483   0.00000   0.00000   0.00000  -0.17946
   9        3PZ         0.00000   0.00000  -0.01655   0.00000   0.00000
  10        4S          0.00000   0.00000  -1.27022   0.00000   0.00000
  11        4PX         0.00000  -0.49564   0.00000   0.00000   0.00000
  12        4PY         1.31081   0.00000   0.00000   0.00000  -0.91457
  13        4PZ         0.00000   0.00000   0.33374   0.00000   0.00000
  14        5XX         0.00000   0.00000  -0.27178   0.00000   0.00000
  15        5YY         0.00000   0.00000  -0.02847   0.00000   0.00000
  16        5ZZ         0.00000   0.00000   0.30952   0.00000   0.00000
  17        5XY         0.00000   0.00000   0.00000   0.88974   0.00000
  18        5XZ         0.00000   0.91052   0.00000   0.00000   0.00000
  19        5YZ        -0.13965   0.00000   0.00000   0.00000   0.25614
  20 2   C  1S          0.05896   0.00000  -0.00326   0.00000  -0.01662
  21        2S          0.31277   0.00000  -0.28348   0.00000  -0.19510
  22        2PX         0.00000  -0.21128   0.00000   0.21432   0.00000
  23        2PY        -0.35833   0.00000   0.03054   0.00000  -0.03550
  24        2PZ         0.36312   0.00000  -0.52825   0.00000  -0.30204
  25        3S         -0.22350   0.00000  -0.37565   0.00000   1.00520
  26        3PX         0.00000   0.51988   0.00000  -0.60796   0.00000
  27        3PY         0.70594   0.00000   0.64342   0.00000  -0.57983
  28        3PZ        -1.23002   0.00000   1.58399   0.00000   1.07670
  29        4XX        -0.06929   0.00000   0.01733   0.00000   0.00846
  30        4YY         0.17445   0.00000   0.01205   0.00000   0.00010
  31        4ZZ         0.03736   0.00000  -0.11852   0.00000  -0.06721
  32        4XY         0.00000   0.12413   0.00000  -0.09042   0.00000
  33        4XZ         0.00000  -0.06498   0.00000   0.09165   0.00000
  34        4YZ         0.04772   0.00000  -0.03963   0.00000   0.07095
  35 3   C  1S         -0.05896   0.00000  -0.00326   0.00000   0.01662
  36        2S         -0.31277   0.00000  -0.28348   0.00000   0.19510
  37        2PX         0.00000  -0.21128   0.00000  -0.21432   0.00000
  38        2PY        -0.35833   0.00000  -0.03054   0.00000  -0.03550
  39        2PZ        -0.36312   0.00000  -0.52825   0.00000   0.30204
  40        3S          0.22350   0.00000  -0.37565   0.00000  -1.00520
  41        3PX         0.00000   0.51988   0.00000   0.60796   0.00000
  42        3PY         0.70594   0.00000  -0.64342   0.00000  -0.57983
  43        3PZ         1.23002   0.00000   1.58399   0.00000  -1.07670
  44        4XX         0.06929   0.00000   0.01733   0.00000  -0.00846
  45        4YY        -0.17445   0.00000   0.01205   0.00000  -0.00010
  46        4ZZ        -0.03736   0.00000  -0.11852   0.00000   0.06721
  47        4XY         0.00000  -0.12413   0.00000  -0.09042   0.00000
  48        4XZ         0.00000  -0.06498   0.00000  -0.09165   0.00000
  49        4YZ         0.04772   0.00000   0.03963   0.00000   0.07095
[...]
  61        4ZZ         0.00077   0.00000   0.00000   0.00000   0.00053
  62        4XY         0.00000   0.00000   0.00000   0.00000   0.00000
  63        4XZ         0.00000   0.00000   0.00000   0.00000   0.00000
  64        4YZ         0.00000   0.00000   0.00000   0.00000   0.00000
  65 5   C  1S         -0.00041   0.00000  -0.00230   0.00000  -0.00049
  66        2S          0.00888   0.00000   0.03731   0.00000   0.01429
  67        2PX         0.00000   0.01402   0.00000   0.00000   0.00000
  68        2PY         0.03731   0.00000   0.09523   0.00000   0.03104
  69        2PZ         0.00000   0.00000   0.00000   0.00119   0.00000
  70        3S          0.01429   0.00000   0.03104   0.00000   0.01119
  71        3PX         0.00000   0.02209   0.00000   0.00000   0.00000
  72        3PY         0.02294   0.00000   0.01943   0.00000   0.01872
  73        3PZ         0.00000   0.00000   0.00000   0.00874   0.00000
  74        4XX        -0.00030   0.00000  -0.00075   0.00000  -0.00059
  75        4YY         0.00357   0.00000   0.00257   0.00000   0.00323
  76        4ZZ        -0.00057   0.00000  -0.00135   0.00000  -0.00200
  77        4XY         0.00000   0.00201   0.00000   0.00000   0.00000
  78        4XZ         0.00000   0.00000   0.00000   0.00000   0.00000
  79        4YZ         0.00000   0.00000   0.00000   0.00174   0.00000
  80 6   H  1S         -0.00016   0.00000  -0.00028  -0.00026  -0.00124
  81        2S         -0.00208   0.00000  -0.00425  -0.00243  -0.00419
  82 7   H  1S          0.00000   0.00000   0.00000   0.00000   0.00011
  83        2S          0.00015   0.00000   0.00042   0.00005   0.00156
  84 8   H  1S          0.03203   0.00000   0.03029   0.06749   0.04371
  85        2S          0.01369   0.00000   0.01881   0.04314   0.03456
  86 9   H  1S         -0.00014   0.00000  -0.00044  -0.00009  -0.00330
  87        2S         -0.00242   0.00000  -0.00685  -0.00166  -0.01425
                          56        57        58        59        60
  56        3PX         0.16091
  57        3PY         0.00000   0.04540
  58        3PZ         0.00000   0.00000   0.03626
  59        4XX         0.00000   0.00000   0.00000   0.00101
  60        4YY         0.00000   0.00000   0.00000   0.00008   0.00115
  61        4ZZ         0.00000   0.00000   0.00000   0.00000  -0.00021
  62        4XY         0.00000   0.00000   0.00000   0.00000   0.00000
  63        4XZ         0.00000   0.00000   0.00000   0.00000   0.00000
  64        4YZ         0.00000   0.00000   0.00000   0.00000   0.00000
  65 5   C  1S          0.00000  -0.00177   0.00000   0.00000  -0.00024
  66        2S          0.00000   0.02294   0.00000  -0.00030   0.00357
  67        2PX         0.02209   0.00000   0.00000   0.00000   0.00000
  68        2PY         0.00000   0.01943   0.00000  -0.00075   0.00257
  69        2PZ         0.00000   0.00000   0.00874   0.00000   0.00000
  70        3S          0.00000   0.01872   0.00000  -0.00059   0.00323
  71        3PX         0.03725   0.00000   0.00000   0.00000   0.00000
  72        3PY         0.00000   0.00369   0.00000  -0.00071   0.00080
  73        3PZ         0.00000   0.00000   0.00727   0.00000   0.00000
  74        4XX         0.00000  -0.00071   0.00000   0.00002  -0.00006
  75        4YY         0.00000   0.00080   0.00000  -0.00006  -0.00006
  76        4ZZ         0.00000  -0.00156   0.00000   0.00001  -0.00002
  77        4XY         0.00144   0.00000   0.00000   0.00000   0.00000
  78        4XZ         0.00000   0.00000   0.00000   0.00000   0.00000
  79        4YZ         0.00000   0.00000   0.00023   0.00000   0.00000
  80 6   H  1S          0.00000  -0.00127   0.00003   0.00000   0.00004
  81        2S          0.00000  -0.00475  -0.00100   0.00007   0.00058
  82 7   H  1S          0.00000   0.00017  -0.00003   0.00000   0.00000
  83        2S          0.00000   0.00193  -0.00011   0.00000  -0.00001
  84 8   H  1S          0.00000   0.01440   0.02906  -0.00076  -0.00043
  85        2S          0.00000   0.01276   0.02382  -0.00085  -0.00049
  86 9   H  1S          0.00000  -0.00250   0.00011   0.00000   0.00001
  87        2S          0.00000  -0.00931   0.00036   0.00007  -0.00031
                          61        62        63        64        65
  61        4ZZ         0.00125
  62        4XY         0.00000   0.00063
  63        4XZ         0.00000   0.00000   0.00056
  64        4YZ         0.00000   0.00000   0.00000   0.00154
  65 5   C  1S          0.00000   0.00000   0.00000   0.00000   2.05215
  66        2S         -0.00057   0.00000   0.00000   0.00000  -0.01345
  67        2PX         0.00000   0.00201   0.00000   0.00000   0.00000
  68        2PY        -0.00135   0.00000   0.00000   0.00000   0.00000
  69        2PZ         0.00000   0.00000   0.00000   0.00174   0.00000
  70        3S         -0.00200   0.00000   0.00000   0.00000  -0.02820
  71        3PX         0.00000   0.00144   0.00000   0.00000   0.00000
  72        3PY        -0.00156   0.00000   0.00000   0.00000   0.00000
  73        3PZ         0.00000   0.00000   0.00000   0.00023   0.00000
  74        4XX         0.00001   0.00000   0.00000   0.00000  -0.00087
  75        4YY        -0.00002   0.00000   0.00000   0.00000  -0.00140
  76        4ZZ         0.00003   0.00000   0.00000   0.00000  -0.00154
  77        4XY         0.00000  -0.00005   0.00000   0.00000   0.00000
  78        4XZ         0.00000   0.00000  -0.00001   0.00000   0.00000
  79        4YZ         0.00000   0.00000   0.00000  -0.00027   0.00000
  80 6   H  1S         -0.00003   0.00000   0.00000   0.00005   0.00000
  81        2S         -0.00050   0.00000   0.00000   0.00016   0.00000
  82 7   H  1S          0.00000   0.00000   0.00000   0.00000   0.00000
  83        2S          0.00000   0.00000   0.00000  -0.00001   0.00014
  84 8   H  1S          0.00270   0.00000   0.00000   0.00379   0.00000
  85        2S          0.00285   0.00000   0.00000   0.00080   0.00016
  86 9   H  1S          0.00000   0.00000   0.00000   0.00005  -0.00207
  87        2S          0.00025   0.00000   0.00000   0.00025  -0.00137
                          66        67        68        69        70
  66        2S          0.32342
  67        2PX         0.00000   0.34584
  68        2PY         0.00000   0.00000   0.41122
  69        2PZ         0.00000   0.00000   0.00000   0.41768
  70        3S          0.18887   0.00000   0.00000   0.00000   0.20732
  71        3PX         0.00000   0.13338   0.00000   0.00000   0.00000
  72        3PY         0.00000   0.00000   0.07608   0.00000   0.00000
  73        3PZ         0.00000   0.00000   0.00000   0.05852   0.00000
  74        4XX        -0.01187   0.00000   0.00000   0.00000  -0.00702
  75        4YY        -0.00176   0.00000   0.00000   0.00000   0.00040
  76        4ZZ         0.00077   0.00000   0.00000   0.00000   0.00053
  77        4XY         0.00000   0.00000   0.00000   0.00000   0.00000
  78        4XZ         0.00000   0.00000   0.00000   0.00000   0.00000
  79        4YZ         0.00000   0.00000   0.00000   0.00000   0.00000
  80 6   H  1S          0.00000   0.00000   0.00000   0.00000   0.00011
  81        2S          0.00015   0.00000   0.00042   0.00005   0.00156
  82 7   H  1S         -0.00016   0.00000  -0.00028  -0.00026  -0.00124
  83        2S         -0.00208   0.00000  -0.00425  -0.00243  -0.00419
  84 8   H  1S         -0.00014   0.00000  -0.00044  -0.00009  -0.00330
  85        2S         -0.00242   0.00000  -0.00685  -0.00166  -0.01425
  86 9   H  1S          0.03203   0.00000   0.03029   0.06749   0.04371
  87        2S          0.01369   0.00000   0.01881   0.04314   0.03456
                          71        72        73        74        75
  71        3PX         0.16091
  72        3PY         0.00000   0.04540
  73        3PZ         0.00000   0.00000   0.03626
  74        4XX         0.00000   0.00000   0.00000   0.00101
  75        4YY         0.00000   0.00000   0.00000   0.00008   0.00115
  76        4ZZ         0.00000   0.00000   0.00000   0.00000  -0.00021
  77        4XY         0.00000   0.00000   0.00000   0.00000   0.00000
  78        4XZ         0.00000   0.00000   0.00000   0.00000   0.00000
  79        4YZ         0.00000   0.00000   0.00000   0.00000   0.00000
  80 6   H  1S          0.00000   0.00017  -0.00003   0.00000   0.00000
  81        2S          0.00000   0.00193  -0.00011   0.00000  -0.00001
  82 7   H  1S          0.00000  -0.00127   0.00003   0.00000   0.00004
  83        2S          0.00000  -0.00475  -0.00100   0.00007   0.00058
  84 8   H  1S          0.00000  -0.00250   0.00011   0.00000   0.00001
  85        2S          0.00000  -0.00931   0.00036   0.00007  -0.00031
  86 9   H  1S          0.00000   0.01440   0.02906  -0.00076  -0.00043
  87        2S          0.00000   0.01276   0.02382  -0.00085  -0.00049
                          76        77        78        79        80
  76        4ZZ         0.00125
  77        4XY         0.00000   0.00063
  78        4XZ         0.00000   0.00000   0.00056
  79        4YZ         0.00000   0.00000   0.00000   0.00154
  80 6   H  1S          0.00000   0.00000   0.00000   0.00000   0.20627
  81        2S          0.00000   0.00000   0.00000  -0.00001   0.09591
  82 7   H  1S         -0.00003   0.00000   0.00000   0.00005   0.00000
  83        2S         -0.00050   0.00000   0.00000   0.00016   0.00000
  84 8   H  1S          0.00000   0.00000   0.00000   0.00005   0.00000
  85        2S          0.00025   0.00000   0.00000   0.00025  -0.00038
  86 9   H  1S          0.00270   0.00000   0.00000   0.00379   0.00000
  87        2S          0.00285   0.00000   0.00000   0.00080   0.00000
                          81        82        83        84        85
  81        2S          0.11525
  82 7   H  1S          0.00000   0.20627
  83        2S         -0.00006   0.09591   0.11525
  84 8   H  1S         -0.00053   0.00000   0.00000   0.20943
  85        2S         -0.00253   0.00000  -0.00011   0.10680   0.14429
  86 9   H  1S          0.00000   0.00000  -0.00053   0.00000  -0.00035
  87        2S         -0.00011  -0.00038  -0.00253  -0.00035  -0.00180
                          86        87
  86 9   H  1S          0.20943
  87        2S          0.10680   0.14429
     Gross orbital populations:
                           1
   1 1   S  1S          1.99864
   2        2S          1.98790
   3        2PX         1.99106
   4        2PY         1.98727
   5        2PZ         1.98907
   6        3S          1.40310
   7        3PX         1.14524
   8        3PY         0.84234
   9        3PZ         1.05162
  10        4S          0.45801
  11        4PX         0.54083
  12        4PY         0.09077
  13        4PZ         0.21881
  14        5XX        -0.02571
  15        5YY         0.00563
  16        5ZZ        -0.00352
  17        5XY         0.01826
  18        5XZ         0.00782
  19        5YZ         0.04508
  20 2   C  1S          1.99185
  21        2S          0.69734
  22        2PX         0.61496
  23        2PY         0.72289
  24        2PZ         0.71435
  25        3S          0.58917
  26        3PX         0.49122
  27        3PY         0.26979
  28        3PZ         0.23918
  29        4XX        -0.02616
  30        4YY         0.01696
  31        4ZZ         0.00062
  32        4XY         0.00259
  33        4XZ         0.00717
  34        4YZ         0.01341
  35 3   C  1S          1.99185
  36        2S          0.69734
  37        2PX         0.61496
  38        2PY         0.72289
  39        2PZ         0.71435
  40        3S          0.58917
  41        3PX         0.49122
  42        3PY         0.26979
  43        3PZ         0.23918
  44        4XX        -0.02616
  45        4YY         0.01696
  46        4ZZ         0.00062
  47        4XY         0.00259
  48        4XZ         0.00717
  49        4YZ         0.01341
  50 4   C  1S          1.99179
  51        2S          0.70239
  52        2PX         0.58849
  53        2PY         0.74203
  54        2PZ         0.75357
  55        3S          0.48847
  56        3PX         0.43417
  57        3PY         0.20571
  58        3PZ         0.18709
  59        4XX        -0.02556
  60        4YY         0.00253
  61        4ZZ         0.00933
  62        4XY         0.00528
  63        4XZ         0.00451
  64        4YZ         0.01318
  65 5   C  1S          1.99179
  66        2S          0.70239
  67        2PX         0.58849
  68        2PY         0.74203
  69        2PZ         0.75357
  70        3S          0.48847
  71        3PX         0.43417
  72        3PY         0.20571
  73        3PZ         0.18709
  74        4XX        -0.02556
  75        4YY         0.00253
  76        4ZZ         0.00933
  77        4XY         0.00528
  78        4XZ         0.00451
  79        4YZ         0.01318
  80 6   H  1S          0.51680
  81        2S          0.30484
  82 7   H  1S          0.51680
  83        2S          0.30484
  84 8   H  1S          0.52219
  85        2S          0.33173
  86 9   H  1S          0.52219
  87        2S          0.33173
          Condensed to atoms (all electrons):
 Mulliken charges:
               1
     1  S    0.247794
     2  C   -0.345334
     3  C   -0.345334
     4  C   -0.103003
     5  C   -0.103003
     6  H    0.178354
     7  H    0.178354
     8  H    0.146086
     9  H    0.146086
 Sum of Mulliken charges =   0.00000
 Mulliken charges with hydrogens summed into heavy atoms:
               1
     1  S    0.247794
     2  C   -0.166980
     3  C   -0.166980
     4  C    0.043083
     5  C    0.043083
 Electronic spatial extent (au):  <R**2>=            398.7874
 Charge=              0.0000 electrons
 Dipole moment (field-independent basis, Debye):
    X=              0.0000    Y=              0.0000    Z=             -0.6515  Tot=              0.6515
 Orbital energies and kinetic energies (alpha):
                                 1                 2
   1         (A1)--O         -88.975489        120.987372
   2         (B2)--O         -10.283446         15.878937
   3         (A1)--O         -10.283437         15.880733
   4         (A1)--O         -10.262295         15.874090
   5         (B2)--O         -10.261863         15.883734
   6         (A1)--O          -8.038112         18.487946
   7         (B2)--O          -6.003102         17.497586
   8         (A1)--O          -5.999168         17.500430
   9         (B1)--O          -5.996004         17.523434
  10         (A1)--O          -0.960370          1.698281
  11         (A1)--O          -0.809699          1.989144
  12         (B2)--O          -0.800660          1.630238
  13         (A1)--O          -0.633230          1.574559
  14         (B2)--O          -0.621166          1.427991
  15         (A1)--O          -0.583125          1.147771
  16         (B2)--O          -0.476200          1.322728
  17         (A1)--O          -0.452513          1.414766
  18         (B2)--O          -0.445197          1.574363
  19         (B1)--O          -0.444497          1.139344
  20         (A1)--O          -0.400587          1.911619
  21         (B1)--O          -0.302015          1.571195
  22         (A2)--O          -0.289354          1.159714
  23         (B1)--V           0.043479          1.484262
  24         (B2)--V           0.090752          1.521712
  25         (A2)--V           0.128073          1.384859
  26         (A1)--V           0.153006          0.882126
  27         (A1)--V           0.163633          1.719847
  28         (B2)--V           0.205977          0.986296
  29         (B2)--V           0.229867          1.182114
  30         (A1)--V           0.230322          0.962512
  31         (A1)--V           0.303091          1.296681
  32         (B2)--V           0.353340          1.481613
  33         (A1)--V           0.361225          1.790145
  34         (B1)--V           0.425042          2.134197
  35         (A1)--V           0.453787          2.347599
  36         (B2)--V           0.483003          2.613175
  37         (B2)--V           0.512974          1.728422
  38         (A1)--V           0.540342          2.177137
  39         (A1)--V           0.597472          1.717712
  40         (B1)--V           0.610971          2.042727
  41         (A2)--V           0.639190          2.121275
  42         (B2)--V           0.659908          2.438234
  43         (A1)--V           0.683955          2.196553
  44         (B1)--V           0.710804          2.275712
  45         (A2)--V           0.718347          2.309718
  46         (B2)--V           0.857118          2.226036
  47         (B1)--V           0.860704          2.212940
  48         (A1)--V           0.869938          2.505526
  49         (A2)--V           0.875429          2.182263
  50         (B2)--V           0.898587          2.572126
  51         (A1)--V           0.918840          2.659789
  52         (B2)--V           0.923310          2.866551
  53         (A1)--V           0.980926          2.613136
  54         (B2)--V           0.988041          2.504971
  55         (A1)--V           1.057933          2.427885
  56         (B2)--V           1.088736          2.695116
  57         (A1)--V           1.129117          2.645266
  58         (A1)--V           1.152856          2.132068
  59         (B2)--V           1.188352          2.285253
  60         (B2)--V           1.235187          2.578287
  61         (A1)--V           1.388954          2.593151
  62         (B1)--V           1.437849          2.526725
  63         (B1)--V           1.495586          2.595100
  64         (B2)--V           1.533768          2.595385
  65         (A2)--V           1.577058          2.722976
  66         (A2)--V           1.805878          2.936679
  67         (A1)--V           1.889540          3.216943
  68         (B1)--V           1.931506          3.109981
  69         (A1)--V           1.959732          3.387849
  70         (A1)--V           2.033035          3.382130
  71         (B2)--V           2.097803          3.596897
  72         (B2)--V           2.264787          3.755273
  73         (B2)--V           2.302307          3.703503
  74         (A1)--V           2.334143          4.098928
  75         (B1)--V           2.335885          3.491623
  76         (A2)--V           2.343385          3.489934
  77         (A2)--V           2.543885          3.723063
  78         (A1)--V           2.561202          4.099467
  79         (B2)--V           2.677879          4.278345
  80         (A1)--V           2.724765          4.577294
  81         (B2)--V           2.958806          4.869483
  82         (B2)--V           3.078361          4.601423
  83         (A1)--V           4.017802         12.619248
  84         (B2)--V           4.179640         10.148733
  85         (A1)--V           4.186132         10.210643
  86         (A1)--V           4.384940         10.447285
  87         (B2)--V           4.509534         10.142828
 Total kinetic energy from orbitals= 5.501519486928D+02
 1\1\GINC-NODE9\SP\RCAM-B3LYP\6-31G(d)\C4H4S1\ROOT\11-Apr-2016\0\\#T gf
 print pop(full) CAM-B3LYP 6-31g* Density\\\0,1\S,0,0.,1.76259022,0.\C,
 0,1.236399,0.55997322,0.\C,0,-1.236399,0.55997322,0.\C,0,0.713765,-0.6
 9615078,0.\C,0,-0.713765,-0.69615078,0.\H,0,2.27772,0.84976922,0.\H,0,
 -2.27772,0.84976922,0.\H,0,1.319056,-1.59488678,0.\H,0,-1.319056,-1.59
 488678,0.\\Version=ES64L-G09RevD.01\State=1-A1\HF=-552.9003553\RMSD=8.
 100e-09\Dipole=0.,-0.2563275,0.\Quadrupole=2.9999325,0.3751067,-3.3750
 392,0.,0.,0.\PG=C02V [C2(S1),SGV(C4H4)]\\@


 IF YOU GIVE A BOY AND A PIG EVERYTHING THEY WANT,
 YOU'LL GET A BAD BOY AND A GOOD PIG.
 Job cpu time:       0 days  0 hours  0 minutes 20.2 seconds.
 File lengths (MBytes):  RWF=     67 Int=      0 D2E=      0 Chk=      2 Scr=      2
 Normal termination of Gaussian 09 at Mon Apr 11 15:45:25 2016.
